# vtk DataFile Version 2.0
sampleSurface
ASCII
DATASET POLYDATA
POINTS 961 double
581321 4785370 1100
581353.375 4785370 1100
581385.625 4785370 1100
581417.75 4785370 1100
581449.875 4785370 1100
581482.125 4785370 1100
581514.4375 4785370 1100
581546.75 4785370 1100
581579 4785370 1100
581611.1875 4785370 1100
581643.4375 4785370 1100
581675.6875 4785370 1100
581707.8125 4785370 1100
581740.0625 4785370 1100
581772.5 4785370 1100
581805 4785370 1100
581837.6875 4785370 1100
581870.375 4785370 1100
581902.875 4785370 1100
581935.4375 4785370 1100
581967.75 4785370 1100
581999.875 4785370 1100
582032.125 4785370 1100
582064.5625 4785370 1100
582096.875 4785370 1100
582129 4785370 1100
582161.1875 4785370 1100
582193.4375 4785370 1100
582225.6875 4785370 1100
582258 4785370 1100
582290 4785370 1100
581321 4785399 1100
581353.375 4785399 1100
581385.625 4785398.5 1100
581417.6875 4785398.5 1100
581449.875 4785398.5 1100
581482.125 4785398.5 1100
581514.375 4785398.5 1100
581546.6875 4785398.5 1100
581578.875 4785398 1100
581611.0625 4785398 1100
581643.25 4785397.5 1100
581675.25 4785397 1100
581707.375 4785396.5 1100
581739.75 4785396 1100
581772.3125 4785395.5 1100
581804.9375 4785395 1100
581837.875 4785395 1100
581870.5625 4785395.5 1100
581903 4785396.5 1100
581935.5625 4785396.5 1100
581968.0625 4785396.5 1100
582000.3125 4785397 1100
582032.4375 4785397.5 1100
582064.8125 4785398 1100
582097.0625 4785398.5 1100
582129.0625 4785398.5 1100
582161.1875 4785398.5 1100
582193.4375 4785398.5 1100
582225.75 4785398.5 1100
582258 4785398.5 1100
582290 4785398.5 1100
581321 4785428 1100
581353.25 4785428 1100
581385.5 4785427.5 1100
581417.625 4785427.5 1100
581449.875 4785427.5 1100
581482.0625 4785427.5 1100
581514.3125 4785427.5 1100
581546.5 4785427.5 1100
581578.6875 4785427 1100
581610.6875 4785426.5 1100
581642.625 4785425.5 1100
581674.5 4785424.5 1100
581706.875 4785424.5 1100
581739.625 4785424 1100
581772.5 4785424 1100
581805.125 4785424 1100
581838.0625 4785424 1100
581870.75 4785424.5 1100
581903.1875 4785425 1100
581935.6875 4785425.5 1100
581968.25 4785425.5 1100
582000.625 4785426 1100
582032.875 4785426.5 1100
582065.1875 4785427 1100
582097.375 4785427 1100
582129.3125 4785427.5 1100
582161.25 4785427.5 1100
582193.4375 4785427.5 1100
582225.6875 4785427.5 1100
582258 4785427.5 1100
582290 4785427.5 1100
581321 4785457 1100
581353.125 4785457 1100
581385.375 4785456.5 1100
581417.5625 4785456.5 1100
581449.8125 4785456.5 1100
581482 4785456.5 1100
581514.125 4785456.5 1100
581546.25 4785456 1100
581578.1875 4785455.5 1100
581610.3125 4785455 1100
581641.875 4785454 1100
581673.9375 4785453 1100
581706.6875 4785453 1100
581739.3125 4785453 1100
581772.4375 4785453 1100
581805.25 4785453 1100
581838.375 4785453 1100
581871 4785453.5 1100
581903.5625 4785454 1100
581936 4785454.5 1100
581968.4375 4785454.5 1100
582000.8125 4785454.5 1100
582033.25 4785455 1100
582065.625 4785455.5 1100
582097.75 4785456 1100
582129.5625 4785456 1100
582161.375 4785456.5 1100
582193.5 4785456.5 1100
582225.6875 4785456.5 1100
582257.9375 4785456.5 1100
582290 4785456.5 1100
581321 4785486 1100
581353 4785486 1100
581385.25 4785485.5 1100
581417.5 4785485.5 1100
581449.75 4785485.5 1100
581481.875 4785485.5 1100
581513.875 4785485 1100
581545.8125 4785484.5 1100
581577.75 4785484 1100
581609.375 4785483.5 1100
581643.875 4785486 1100
581676.1875 4785486 1100
581708.625 4785486 1100
581739.4375 4785482 1100
581772.25 4785482 1100
581805.25 4785482 1100
581838.4375 4785482 1100
581871.3125 4785482.5 1100
581903.875 4785482.5 1100
581936.3125 4785483 1100
581968.6875 4785483 1100
582001.125 4785483 1100
582033.75 4785483.5 1100
582066.0625 4785484.5 1100
582098.125 4785484.5 1100
582129.9375 4785485 1100
582161.625 4785485.5 1100
582193.625 4785485.5 1100
582225.6875 4785485.5 1100
582257.9375 4785485.5 1100
582290 4785485.5 1100
581321 4785515 1100
581352.875 4785514.5 1100
581385.1875 4785514.5 1100
581417.4375 4785514.5 1100
581449.625 4785514.5 1100
581481.75 4785514.5 1100
581513.5 4785514 1100
581545.25 4785513.5 1100
581577.4375 4785513 1100
581609.75 4785513 1100
581644 4785515 1100
581676.3125 4785515 1100
581708.625 4785515 1100
581739.375 4785511 1100
581772.0625 4785511 1100
581805.3125 4785511 1100
581838.625 4785511 1100
581871.6875 4785511.5 1100
581904.25 4785512 1100
581936.625 4785512 1100
581968.875 4785512.5 1100
582001.3125 4785512.5 1100
582034.0625 4785513 1100
582066.4375 4785513 1100
582098.375 4785513.5 1100
582130.3125 4785514 1100
582162 4785514.5 1100
582193.8125 4785514.5 1100
582225.75 4785514.5 1100
582257.9375 4785514.5 1100
582290 4785514.5 1100
581321 4785543.5 1100
581352.875 4785543.5 1100
581385.125 4785543.5 1100
581417.3125 4785543.5 1100
581449.5 4785543.5 1100
581481.5 4785543 1100
581512.75 4785542.5 1100
581544.3125 4785542 1100
581576.25 4785541.5 1100
581609.9375 4785542.5 1100
581642.4375 4785542.5 1100
581676.3125 4785544 1100
581706.3125 4785540 1100
581738.9375 4785540 1100
581772.0625 4785540 1100
581805.5625 4785540 1100
581839 4785540.5 1100
581872 4785541 1100
581904.625 4785541.5 1100
581936.9375 4785541.5 1100
581969.0625 4785542 1100
582001.5 4785542.5 1100
582034.125 4785542.5 1100
582066.5625 4785542.5 1100
582098.625 4785543 1100
582130.625 4785543 1100
582162.3125 4785543.5 1100
582193.9375 4785543.5 1100
582225.8125 4785543.5 1100
582258 4785543.5 1100
582290 4785543.5 1100
581321 4785572.5 1100
581352.8125 4785572.5 1100
581385.0625 4785572.5 1100
581417.25 4785572.5 1100
581449.3125 4785572.5 1100
581481.125 4785572 1100
581512.1875 4785571.5 1100
581543.1875 4785571 1100
581575.3125 4785570.5 1100
581608.875 4785571 1100
581641.4375 4785570.5 1100
581676.3125 4785573 1100
581705.625 4785569 1100
581738.8125 4785569 1100
581772.3125 4785569 1100
581806.125 4785569.5 1100
581839.5625 4785570 1100
581872.4375 4785570.5 1100
581905.0625 4785571 1100
581937.375 4785571.5 1100
581969.5 4785572.5 1100
582001.875 4785573 1100
582034.1875 4785573 1100
582066.375 4785573 1100
582098.5 4785572.5 1100
582130.5625 4785572 1100
582162.3125 4785572.5 1100
582193.9375 4785572.5 1100
582225.875 4785572.5 1100
582258.0625 4785572.5 1100
582290 4785573 1100
581321 4785601.5 1100
581352.8125 4785601.5 1100
581385 4785601.5 1100
581417.1875 4785601.5 1100
581449.0625 4785601.5 1100
581480.5625 4785601 1100
581512.0625 4785600.5 1100
581543.0625 4785600 1100
581575.75 4785600 1100
581609.1875 4785600.5 1100
581641.5 4785600 1100
581676.3125 4785602 1100
581707.25 4785600.5 1100
581740.9375 4785602 1100
581772.6875 4785599 1100
581806.8125 4785599.5 1100
581840.1875 4785600 1100
581873 4785601 1100
581905.875 4785601.5 1100
581938.0625 4785602.5 1100
581970.125 4785603 1100
582002.125 4785603.5 1100
582034.1875 4785603.5 1100
582066.125 4785603 1100
582098.125 4785602.5 1100
582130.1875 4785602 1100
582162.1875 4785601.5 1100
582193.875 4785601.5 1100
582225.9375 4785601.5 1100
582258.1875 4785602 1100
582290 4785602 1100
581321 4785630.5 1100
581352.75 4785630.5 1100
581384.9375 4785630.5 1100
581417.0625 4785630.5 1100
581448.8125 4785630.5 1100
581480 4785630 1100
581511.625 4785629.5 1100
581543.0625 4785629.5 1100
581575.6875 4785629.5 1100
581608.8125 4785629.5 1100
581644 4785631 1100
581676.375 4785631 1100
581708.625 4785631 1100
581740.9375 4785631 1100
581773.25 4785629.5 1100
581807.5625 4785630.5 1100
581840.9375 4785631 1100
581873.75 4785631.5 1100
581906.5 4785632 1100
581938.375 4785632.5 1100
581969.3125 4785632.5 1100
582002.0625 4785632.5 1100
582034.0625 4785632.5 1100
582065.875 4785632.5 1100
582097.875 4785632 1100
582129.75 4785631.5 1100
582161.9375 4785631 1100
582193.8125 4785631 1100
582225.9375 4785631 1100
582258.25 4785631 1100
582290 4785631 1100
581321 4785660 1100
581352.6875 4785659.5 1100
581384.875 4785659.5 1100
581416.9375 4785659.5 1100
581448.625 4785659 1100
581479.5 4785658.5 1100
581510.8125 4785658.5 1100
581542.875 4785658.5 1100
581575.625 4785658.5 1100
581611.75 4785660 1100
581644.0625 4785660 1100
581676.375 4785660 1100
581708.625 4785660 1100
581740.9375 4785660 1100
581773.625 4785662 1100
581807.625 4785661.5 1100
581841.125 4785661 1100
581874.1875 4785661 1100
581907 4785661.5 1100
581937.5 4785661 1100
581968.75 4785661 1100
582001.75 4785661.5 1100
582033.625 4785661 1100
582065.375 4785661 1100
582097.625 4785660.5 1100
582129.5625 4785660 1100
582161.875 4785660 1100
582193.8125 4785659.5 1100
582226 4785660 1100
582258.25 4785660 1100
582290 4785660 1100
581321 4785689 1100
581352.5625 4785689 1100
581384.75 4785688.5 1100
581416.75 4785688.5 1100
581448.375 4785688 1100
581479.5 4785687.5 1100
581510.6875 4785687.5 1100
581542.8125 4785687.5 1100
581575.75 4785687.5 1100
581608.1875 4785687.5 1100
581644.0625 4785689 1100
581676.3125 4785689 1100
581708.1875 4785689.5 1100
581740.6875 4785691.5 1100
581773.5625 4785691.5 1100
581807.3125 4785691.5 1100
581840.75 4785691 1100
581873.8125 4785690.5 1100
581904.875 4785689.5 1100
581937.375 4785689.5 1100
581967 4785689 1100
582001.5625 4785689.5 1100
582033.375 4785689.5 1100
582065 4785689 1100
582097.375 4785689 1100
582129.5 4785688.5 1100
582161.8125 4785688.5 1100
582193.9375 4785689 1100
582226.125 4785689 1100
582258.3125 4785689 1100
582290 4785689 1100
581321 4785717.5 1100
581352.5 4785718 1100
581384.625 4785717.5 1100
581416.5 4785717.5 1100
581448 4785717 1100
581479.3125 4785716.5 1100
581510.75 4785716.5 1100
581542.9375 4785716.5 1100
581579.25 4785718 1100
581608.1875 4785716.5 1100
581640.9375 4785717 1100
581675 4785718 1100
581709.125 4785719 1100
581741.3125 4785720 1100
581773.625 4785720.5 1100
581806.9375 4785720.5 1100
581840.125 4785720 1100
581872.5625 4785718.5 1100
581906.375 4785716.5 1100
581938.375 4785716.5 1100
581970.1875 4785717 1100
582001.8125 4785717 1100
582033.5 4785717 1100
582064.8125 4785717 1100
582097.1875 4785717 1100
582129.625 4785717 1100
582162 4785717.5 1100
582194.25 4785718 1100
582226.25 4785718 1100
[...]
CELL_DATA 1800
FIELD attributes 1
U 3 1800 float
13.948143959 -0.00741918152198 0.107278853655
13.948143959 -0.00741918152198 0.107278853655
13.9755649567 -0.0150699699298 0.223276376724
13.9755649567 -0.0150699699298 0.223276376724
14.0263652802 -0.0225785113871 0.336665689945
14.0263652802 -0.0225785113871 0.336665689945
14.099978447 -0.0302340500057 0.446951657534
14.099978447 -0.0302340500057 0.446951657534
14.1971969604 -0.0380978956819 0.552127242088
14.1971969604 -0.0380978956819 0.552127242088
14.3195962906 -0.0458092205226 0.649751007557
14.3195962906 -0.0458092205226 0.649751007557
14.4676141739 -0.0527458228171 0.736316919327
14.4676141739 -0.0527458228171 0.736316919327
14.6413383484 -0.0582773908973 0.807780683041
14.6413383484 -0.0582773908973 0.807780683041
14.8378791809 -0.0616270042956 0.859191834927
14.8378791809 -0.0616270042956 0.859191834927
15.0540618896 -0.0616809986532 0.884035170078
15.0540618896 -0.0616809986532 0.884035170078
15.2817296982 -0.0567064285278 0.875347971916
15.2817296982 -0.0567064285278 0.875347971916
15.5094804764 -0.0471881851554 0.825168609619
15.5094804764 -0.0471881851554 0.825168609619
15.7201633453 -0.0331762507558 0.726995289326
15.7201633453 -0.0331762507558 0.726995289326
15.8934726715 -0.0158587247133 0.578660070896
15.8934726715 -0.0158587247133 0.578660070896
16.0042171478 0.00362933753058 0.388445794582
16.0042171478 0.00362933753058 0.388445794582
16.0375766754 0.0231289379299 0.172399505973
16.0375766754 0.0231289379299 0.172399505973
15.9901990891 0.0397426858544 -0.0454746708274
15.9901990891 0.0397426858544 -0.0454746708274
15.8766746521 0.0516974925995 -0.242048054934
15.8766746521 0.0516974925995 -0.242048054934
15.7184076309 0.0569545961916 -0.40511572361
15.7184076309 0.0569545961916 -0.40511572361
15.5347805023 0.0590024515986 -0.530931591988
15.5347805023 0.0590024515986 -0.530931591988
15.3434095383 0.0591740943491 -0.617847919464
15.3434095383 0.0591740943491 -0.617847919464
15.1568841934 0.0567023418844 -0.67072302103
15.1568841934 0.0567023418844 -0.67072302103
14.9821043015 0.0517409443855 -0.694768667221
14.9821043015 0.0517409443855 -0.694768667221
14.8259649277 0.0460424646735 -0.693774878979
14.8259649277 0.0460424646735 -0.693774878979
14.6933603287 0.0403220430017 -0.674029767513
14.6933603287 0.0403220430017 -0.674029767513
14.5857906342 0.0350567474961 -0.643574655056
14.5857906342 0.0350567474961 -0.643574655056
14.5017795563 0.0306114498526 -0.610446095467
14.5017795563 0.0306114498526 -0.610446095467
14.4367933273 0.0271626021713 -0.580882012844
14.4367933273 0.0271626021713 -0.580882012844
14.3866081238 0.0247524511069 -0.558929920197
14.3866081238 0.0247524511069 -0.558929920197
14.3303995132 0.0229761935771 -0.545733511448
14.3303995132 0.0229761935771 -0.545733511448
13.9475421906 -0.0212711133063 0.110583402216
13.9475421906 -0.0212711133063 0.110583402216
13.9746770859 -0.0439294651151 0.230414301157
13.9746770859 -0.0439294651151 0.230414301157
14.0250177383 -0.0663802623749 0.347752839327
14.0250177383 -0.0663802623749 0.347752839327
14.0979938507 -0.0890913829207 0.462185651064
14.0979938507 -0.0890913829207 0.462185651064
14.1944980621 -0.112201422453 0.571995079517
14.1944980621 -0.112201422453 0.571995079517
14.3163156509 -0.135044127703 0.674773573875
14.3163156509 -0.135044127703 0.674773573875
14.4649925232 -0.15633572638 0.767237067223
14.4649925232 -0.15633572638 0.767237067223
14.6407394409 -0.173523038626 0.844508707523
14.6407394409 -0.173523038626 0.844508707523
14.8404531479 -0.18239107728 0.900996446609
14.8404531479 -0.18239107728 0.900996446609
15.060303688 -0.181946337223 0.929751574993
15.060303688 -0.181946337223 0.929751574993
15.2932157516 -0.169421613216 0.922193169594
15.2932157516 -0.169421613216 0.922193169594
15.5313405991 -0.144368052483 0.868146836758
15.5313405991 -0.144368052483 0.868146836758
15.7544469833 -0.103789098561 0.761189937592
15.7544469833 -0.103789098561 0.761189937592
15.9364681244 -0.0500492081046 0.600040197372
15.9364681244 -0.0500492081046 0.600040197372
16.0495529175 0.0119448248297 0.395147413015
16.0495529175 0.0119448248297 0.395147413015
16.0786590576 0.0736044347286 0.16446736455
16.0786590576 0.0736044347286 0.16446736455
16.0236206055 0.123046241701 -0.0637252256274
16.0236206055 0.123046241701 -0.0637252256274
15.9021921158 0.155696496367 -0.265706837177
15.9021921158 0.155696496367 -0.265706837177
15.7353363037 0.171350598335 -0.434088408947
15.7353363037 0.171350598335 -0.434088408947
15.545126915 0.17506736517 -0.562816739082
15.545126915 0.17506736517 -0.562816739082
15.3491172791 0.170999333262 -0.650097966194
15.3491172791 0.170999333262 -0.650097966194
15.1596822739 0.160806894302 -0.701327621937
15.1596822739 0.160806894302 -0.701327621937
14.9833078384 0.14684407413 -0.723003447056
14.9833078384 0.14684407413 -0.723003447056
14.8268976212 0.131400436163 -0.719209015369
14.8268976212 0.131400436163 -0.719209015369
14.6945810318 0.116067886353 -0.696450769901
14.6945810318 0.116067886353 -0.696450769901
14.5877847672 0.101690873504 -0.663043498993
14.5877847672 0.101690873504 -0.663043498993
14.5046949387 0.0892220214009 -0.627243757248
14.5046949387 0.0892220214009 -0.627243757248
14.4409179688 0.0794065520167 -0.595629394054
14.4409179688 0.0794065520167 -0.595629394054
14.3917970657 0.0723812356591 -0.57222956419
14.3917970657 0.0723812356591 -0.57222956419
14.3376579285 0.0676868706942 -0.558438777924
14.3376579285 0.0676868706942 -0.558438777924
13.947508812 -0.0335794948041 0.116517163813
13.947508812 -0.0335794948041 0.116517163813
13.9745130539 -0.0702821314335 0.243034988642
13.9745130539 -0.0702821314335 0.243034988642
14.024471283 -0.106884382665 0.367288589478
14.024471283 -0.106884382665 0.367288589478
14.0966091156 -0.143920078874 0.48903670907
14.0966091156 -0.143920078874 0.48903670907
14.1919851303 -0.181529834867 0.607007324696
14.1919851303 -0.181529834867 0.607007324696
14.3132171631 -0.219082906842 0.719048500061
14.3132171631 -0.219082906842 0.719048500061
14.463060379 -0.25440338254 0.821679413319
14.463060379 -0.25440338254 0.821679413319
14.6426277161 -0.282089263201 0.908714056015
14.6426277161 -0.282089263201 0.908714056015
14.8434410095 -0.298390835524 0.976135134697
14.8434410095 -0.298390835524 0.976135134697
15.0726718903 -0.296908169985 1.01089644432
15.0726718903 -0.296908169985 1.01089644432
15.3205499649 -0.276570945978 1.00151610374
15.3205499649 -0.276570945978 1.00151610374
15.5786066055 -0.226902768016 0.940597116947
15.5786066055 -0.226902768016 0.940597116947
15.8206539154 -0.156023994088 0.8186840415
15.8206539154 -0.156023994088 0.8186840415
16.0180091858 -0.0668231025338 0.633673906326
16.0180091858 -0.0668231025338 0.633673906326
16.1347732544 0.0374051444232 0.397027879953
16.1347732544 0.0374051444232 0.397027879953
16.15391922 0.139366209507 0.135058328509
16.15391922 0.139366209507 0.135058328509
16.080083847 0.218737021089 -0.11437125504
16.080083847 0.218737021089 -0.11437125504
15.9383096695 0.268556177616 -0.328476428986
15.9383096695 0.268556177616 -0.328476428986
15.7544898987 0.29037079215 -0.501333713531
15.7544898987 0.29037079215 -0.501333713531
15.5517978668 0.290427654982 -0.630164444447
15.5517978668 0.290427654982 -0.630164444447
15.3479003906 0.277553528547 -0.714346349239
15.3479003906 0.277553528547 -0.714346349239
15.1534948349 0.257367134094 -0.760334193707
15.1534948349 0.257367134094 -0.760334193707
14.9756736755 0.233494207263 -0.774934709072
14.9756736755 0.233494207263 -0.774934709072
14.8195466995 0.208329707384 -0.763873517513
14.8195466995 0.208329707384 -0.763873517513
14.6892900467 0.184010416269 -0.734293460846
14.6892900467 0.184010416269 -0.734293460846
14.5854692459 0.161555364728 -0.694986104965
14.5854692459 0.161555364728 -0.694986104965
14.5055332184 0.142212614417 -0.654313981533
14.5055332184 0.142212614417 -0.654313981533
14.4449872971 0.126778140664 -0.618949174881
14.4449872971 0.126778140664 -0.618949174881
14.3990535736 0.115590833127 -0.593039512634
14.3990535736 0.115590833127 -0.593039512634
14.3490638733 0.108582392335 -0.577957570553
14.3490638733 0.108582392335 -0.577957570553
13.9473400116 -0.0443152599037 0.124959766865
13.9473400116 -0.0443152599037 0.124959766865
13.9741973877 -0.0933770388365 0.261419117451
13.9741973877 -0.0933770388365 0.261419117451
14.0235948563 -0.142487645149 0.395712226629
14.0235948563 -0.142487645149 0.395712226629
14.0944108963 -0.192165955901 0.527952551842
14.0944108963 -0.192165955901 0.527952551842
14.1880578995 -0.242678180337 0.657740116119
14.1880578995 -0.242678180337 0.657740116119
14.3082771301 -0.293346583843 0.783235013485
14.3082771301 -0.293346583843 0.783235013485
14.4590167999 -0.339935600758 0.900473296642
14.4590167999 -0.339935600758 0.900473296642
14.6380195618 -0.374168217182 1.00320029259
14.6380195618 -0.374168217182 1.00320029259
14.844078064 -0.404280245304 1.08536028862
14.844078064 -0.404280245304 1.08536028862
15.0852508545 -0.411241143942 1.14231646061
15.0852508545 -0.411241143942 1.14231646061
15.3619289398 -0.387206107378 1.13700711727
15.3619289398 -0.387206107378 1.13700711727
15.6465578079 -0.340187847614 1.08911478519
15.6465578079 -0.340187847614 1.08911478519
15.9197664261 -0.235711187124 0.927551984787
15.9197664261 -0.235711187124 0.927551984787
16.1232643127 -0.0958988443017 0.702610909939
16.1232643127 -0.0958988443017 0.702610909939
16.243642807 0.0566933788359 0.414684206247
16.243642807 0.0566933788359 0.414684206247
16.2469921112 0.199035644531 0.101236023009
16.2469921112 0.199035644531 0.101236023009
16.1442337036 0.306544363499 -0.185484796762
16.1442337036 0.306544363499 -0.185484796762
15.9710578918 0.369426012039 -0.420056760311
15.9710578918 0.369426012039 -0.420056760311
15.7634983063 0.393627077341 -0.599061131477
15.7634983063 0.393627077341 -0.599061131477
15.5449066162 0.388141274452 -0.724723696709
15.5449066162 0.388141274452 -0.724723696709
15.331319809 0.365005940199 -0.801428616047
15.331319809 0.365005940199 -0.801428616047
15.1318693161 0.334664016962 -0.838849961758
15.1318693161 0.334664016962 -0.838849961758
14.9536943436 0.301029324532 -0.843778848648
14.9536943436 0.301029324532 -0.843778848648
14.8003931046 0.266979128122 -0.823146939278
14.8003931046 0.266979128122 -0.823146939278
14.6745080948 0.2359020859 -0.785018920898
14.6745080948 0.2359020859 -0.785018920898
14.5757675171 0.208239376545 -0.738124549389
14.5757675171 0.208239376545 -0.738124549389
14.501159668 0.18441849947 -0.691177308559
14.501159668 0.18441849947 -0.691177308559
14.4459152222 0.165169581771 -0.650847554207
14.4459152222 0.165169581771 -0.650847554207
14.4050998688 0.1511041224 -0.621461987495
14.4050998688 0.1511041224 -0.621461987495
14.3613996506 0.142318025231 -0.604516029358
14.3613996506 0.142318025231 -0.604516029358
13.9471912384 -0.0529417470098 0.135743334889
13.9471912384 -0.0529417470098 0.135743334889
13.9736976624 -0.111893929541 0.284763365984
13.9736976624 -0.111893929541 0.284763365984
14.0220565796 -0.171009853482 0.431770801544
14.0220565796 -0.171009853482 0.431770801544
14.0910320282 -0.230915784836 0.577691555023
14.0910320282 -0.230915784836 0.577691555023
14.1824893951 -0.291891872883 0.723021566868
14.1824893951 -0.291891872883 0.723021566868
14.3008060455 -0.352271705866 0.865411520004
14.3008060455 -0.352271705866 0.865411520004
14.4499530792 -0.410123556852 1.00554382801
14.4499530792 -0.410123556852 1.00554382801
14.6120796204 -0.473479032516 1.15115642548
14.6120796204 -0.473479032516 1.15115642548
14.8432445526 -0.497869879007 1.22197628021
14.8432445526 -0.497869879007 1.22197628021
15.0886268616 -0.551749169827 1.32968568802
15.0886268616 -0.551749169827 1.32968568802
15.4001131058 -0.517840981483 1.33015620708
15.4001131058 -0.517840981483 1.33015620708
15.7022104263 -0.454241037369 1.26742374897
15.7022104263 -0.454241037369 1.26742374897
16.0337944031 -0.274271458387 1.02973663807
16.0337944031 -0.274271458387 1.02973663807
16.2439689636 -0.0966611281037 0.763455033302
16.2439689636 -0.0966611281037 0.763455033302
16.3640823364 0.0989055559039 0.412822365761
16.3640823364 0.0989055559039 0.412822365761
16.3444766998 0.275671631098 0.0373808257282
16.3444766998 0.275671631098 0.0373808257282
16.2037754059 0.402767598629 -0.296404361725
16.2037754059 0.402767598629 -0.296404361725
15.9915790558 0.469409316778 -0.553534805775
15.9915790558 0.469409316778 -0.553534805775
15.7545099258 0.485212564468 -0.736367762089
15.7545099258 0.485212564468 -0.736367762089
15.5184879303 0.468212097883 -0.853109896183
15.5184879303 0.468212097883 -0.853109896183
15.296872139 0.43307992816 -0.916476070881
15.296872139 0.43307992816 -0.916476070881
15.0960769653 0.391695231199 -0.940156877041
15.0960769653 0.391695231199 -0.940156877041
14.9202079773 0.349177360535 -0.931123375893
14.9202079773 0.349177360535 -0.931123375893
14.7718820572 0.307993799448 -0.896899342537
14.7718820572 0.307993799448 -0.896899342537
14.6523637772 0.271596938372 -0.847728073597
14.6523637772 0.271596938372 -0.847728073597
14.5605163574 0.240585163236 -0.791987717152
14.5605163574 0.240585163236 -0.791987717152
14.4926900864 0.214277282357 -0.737711429596
14.4926900864 0.214277282357 -0.737711429596
14.4442100525 0.193031251431 -0.691538751125
14.4442100525 0.193031251431 -0.691538751125
14.4097709656 0.177417621017 -0.657914400101
14.4097709656 0.177417621017 -0.657914400101
14.3737516403 0.16758967936 -0.638576567173
14.3737516403 0.16758967936 -0.638576567173
13.9471693039 -0.0590586774051 0.148399844766
13.9471693039 -0.0590586774051 0.148399844766
13.9729986191 -0.124911136925 0.311998337507
13.9729986191 -0.124911136925 0.311998337507
14.0199146271 -0.191012218595 0.474108636379
14.0199146271 -0.191012218595 0.474108636379
14.0868349075 -0.257971435785 0.636686623096
14.0868349075 -0.257971435785 0.636686623096
14.1757688522 -0.325316250324 0.800398528576
14.1757688522 -0.325316250324 0.800398528576
14.2908735275 -0.390598803759 0.962835371494
14.2908735275 -0.390598803759 0.962835371494
14.4367351532 -0.459581762552 1.13121592999
14.4367351532 -0.459581762552 1.13121592999
14.5942897797 -0.550424456596 1.30042397976
14.5942897797 -0.550424456596 1.30042397976
14.8512296677 -0.570685386658 1.41041338444
14.8512296677 -0.570685386658 1.41041338444
15.1192340851 -0.620946288109 1.53758883476
15.1192340851 -0.620946288109 1.53758883476
15.4492959976 -0.557162225246 1.56915152073
15.4492959976 -0.557162225246 1.56915152073
15.8138179779 -0.41685500741 1.40379488468
15.8138179779 -0.41685500741 1.40379488468
16.1679096222 -0.223404943943 1.12635576725
16.1679096222 -0.223404943943 1.12635576725
16.4065284729 -0.0372932739556 0.792460262775
16.4065284729 -0.0372932739556 0.792460262775
16.5225772858 0.182533740997 0.358595877886
16.5225772858 0.182533740997 0.358595877886
16.4676475525 0.376974880695 -0.0951825529337
16.4676475525 0.376974880695 -0.0951825529337
16.2735309601 0.50466376543 -0.477295666933
16.2735309601 0.50466376543 -0.477295666933
16.0096321106 0.560753941536 -0.745862066746
16.0096321106 0.560753941536 -0.745862066746
15.7372779846 0.560720741749 -0.912421286106
15.7372779846 0.560720741749 -0.912421286106
15.4836587906 0.526205599308 -1.00762724876
15.4836587906 0.526205599308 -1.00762724876
15.2545833588 0.474783420563 -1.05063319206
15.2545833588 0.474783420563 -1.05063319206
15.054444313 0.420851171017 -1.05519533157
15.054444313 0.420851171017 -1.05519533157
14.8829097748 0.370591908693 -1.0287501812
14.8829097748 0.370591908693 -1.0287501812
14.7414541245 0.325671106577 -0.979853749275
14.7414541245 0.325671106577 -0.979853749275
14.6293067932 0.287402778864 -0.918793320656
14.6293067932 0.287402778864 -0.918793320656
14.5450325012 0.255673676729 -0.854031205177
14.5450325012 0.255673676729 -0.854031205177
14.4843683243 0.229165792465 -0.792080581188
14.4843683243 0.229165792465 -0.792080581188
14.4429244995 0.207929894328 -0.73973762989
14.4429244995 0.207929894328 -0.73973762989
14.4151363373 0.192268297076 -0.701683878899
14.4151363373 0.192268297076 -0.701683878899
14.3871107101 0.182279974222 -0.679804205894
14.3871107101 0.182279974222 -0.679804205894
13.9472894669 -0.0623556636274 0.162598609924
13.9472894669 -0.0623556636274 0.162598609924
13.972325325 -0.131840214133 0.342441856861
13.972325325 -0.131840214133 0.342441856861
14.0178775787 -0.201498106122 0.52169907093
14.0178775787 -0.201498106122 0.52169907093
14.0830860138 -0.27166262269 0.703054249287
14.0830860138 -0.27166262269 0.703054249287
14.1707744598 -0.341220885515 0.887722671032
14.1707744598 -0.341220885515 0.887722671032
14.2860774994 -0.407387763262 1.07347762585
14.2860774994 -0.407387763262 1.07347762585
14.4382171631 -0.47145229578 1.26552188396
14.4382171631 -0.47145229578 1.26552188396
14.6325597763 -0.537161886692 1.43690872192
14.6325597763 -0.537161886692 1.43690872192
14.8848142624 -0.576461851597 1.60924625397
14.8848142624 -0.576461851597 1.60924625397
15.2305965424 -0.565557003021 1.70915937424
15.2305965424 -0.565557003021 1.70915937424
15.5311441422 -0.527391791344 1.78150177002
15.5311441422 -0.527391791344 1.78150177002
15.934214592 -0.382260173559 1.55131471157
15.934214592 -0.382260173559 1.55131471157
16.2922286987 -0.216049820185 1.29402089119
16.2922286987 -0.216049820185 1.29402089119
16.5865287781 0.0288795400411 0.87003916502
16.5865287781 0.0288795400411 0.87003916502
16.7075786591 0.279797315598 0.306169778109
16.7075786591 0.279797315598 0.306169778109
16.6066932678 0.477083474398 -0.256219089031
16.6066932678 0.477083474398 -0.256219089031
16.3476810455 0.589214801788 -0.690886080265
16.3476810455 0.589214801788 -0.690886080265
16.0253715515 0.629504978657 -0.963481426239
16.0253715515 0.629504978657 -0.963481426239
15.7140226364 0.614687860012 -1.11185646057
15.7140226364 0.614687860012 -1.11185646057
15.4393920898 0.562024772167 -1.17576658726
15.4393920898 0.562024772167 -1.17576658726
15.2053203583 0.492877304554 -1.19021046162
15.2053203583 0.492877304554 -1.19021046162
15.0102548599 0.426651448011 -1.17013037205
15.0102548599 0.426651448011 -1.17013037205
14.8473415375 0.369016051292 -1.12403440475
14.8473415375 0.369016051292 -1.12403440475
14.7151641846 0.320875793695 -1.06113696098
14.7151641846 0.320875793695 -1.06113696098
14.6108417511 0.282541483641 -0.989678382874
14.6108417511 0.282541483641 -0.989678382874
14.5335626602 0.252168476582 -0.917137920856
14.5335626602 0.252168476582 -0.917137920856
14.4795265198 0.227755919099 -0.848948419094
14.4795265198 0.227755919099 -0.848948419094
14.4442243576 0.20822404325 -0.791439294815
14.4442243576 0.20822404325 -0.791439294815
14.4224634171 0.193630188704 -0.749813020229
14.4224634171 0.193630188704 -0.749813020229
14.4019289017 0.184103742242 -0.725821912289
14.4019289017 0.184103742242 -0.725821912289
13.9475049973 -0.0625492930412 0.177857398987
13.9475049973 -0.0625492930412 0.177857398987
13.9718990326 -0.132141008973 0.374979764223
13.9718990326 -0.132141008973 0.374979764223
14.0164031982 -0.20162089169 0.572574079037
14.0164031982 -0.20162089169 0.572574079037
14.0803489685 -0.270817935467 0.773836612701
14.0803489685 -0.270817935467 0.773836612701
14.1674528122 -0.338477581739 0.98062980175
14.1674528122 -0.338477581739 0.98062980175
14.285984993 -0.403503626585 1.19182705879
14.285984993 -0.403503626585 1.19182705879
14.4470720291 -0.461397767067 1.40523040295
14.4470720291 -0.461397767067 1.40523040295
14.6665086746 -0.510036587715 1.60645461082
14.6665086746 -0.510036587715 1.60645461082
14.9552116394 -0.53595417738 1.80123257637
14.9552116394 -0.53595417738 1.80123257637
15.3338088989 -0.504232704639 1.89172768593
15.3338088989 -0.504232704639 1.89172768593
15.6155471802 -0.482438534498 1.97754013538
15.6155471802 -0.482438534498 1.97754013538
16.0478305817 -0.332808345556 1.76006174088
16.0478305817 -0.332808345556 1.76006174088
16.4558486938 -0.179583281279 1.45691144466