# vtk DataFile Version 2.0
sampleSurface
ASCII
DATASET POLYDATA
POINTS 6837 double
581321 4785370 969.805969238
581333.6875 4785370 969.71295166
581353.3125 4785370 969.565979004
581365.625 4785370 969.362426758
581385.625 4785370 969.02746582
581397.5 4785370 969.024597168
581321 4785381.5 969.960021973
581417.875 4785370 969.007995605
581333.9375 4785381.5 969.918273926
581430.1875 4785370 969.352478027
581340.4375 4785381.5 969.868774414
581353.3125 4785381.5 969.761962891
581450.1875 4785370 969.912597656
581365.875 4785381.5 969.581787109
581463.75 4785370 970.42980957
581373.1875 4785381 969.456542969
581385.625 4785381 969.296020508
581334 4785387.5 969.993896484
581482.5 4785370 971.136413574
581340.3125 4785387.5 969.969055176
581397.75 4785381 969.221496582
581405.75 4785381 969.21484375
581497.5 4785370 971.711914062
581417.875 4785381 969.465576172
581366 4785387.5 969.68939209
581514.8125 4785370 972.389465332
581373 4785387.5 969.620727539
581430.6875 4785381.5 969.801757812
581531 4785370 972.792053223
581437.1875 4785381.5 969.99017334
581397.9375 4785388 969.393859863
581547.125 4785370 973.181945801
581450.1875 4785382 970.40020752
581405.4375 4785388 969.494567871
581321 4785399 970.19152832
581564.375 4785370 973.72467041
581464.3125 4785382.5 970.951599121
581334.1875 4785399 970.140991211
581431 4785387.5 970.04675293
581468.1875 4785383 971.104614258
581436.9375 4785387 970.199523926
581579.375 4785370 974.197387695
581353.3125 4785399 970.064453125
581482.5 4785383.5 971.689147949
581464.5 4785386 971.098449707
581597.9375 4785370 974.847839355
581468.0625 4785386 971.233520508
581366.25 4785399 969.93560791
581611.6875 4785370 975.293579102
581498.25 4785384 972.371643066
581499.0625 4785384 972.405212402
581498.25 4785385 972.404052734
581499 4785385 972.432495117
581385.625 4785399 969.7421875
581631.875 4785370 976.302368164
581514.8125 4785385 973.01171875
581398.5625 4785399 969.931396484
581530.125 4785384 973.459838867
581644 4785370 976.908569336
581531.8125 4785383.5 973.498962402
581530.0625 4785385.5 973.521118164
581417.875 4785399 970.203979492
581321 4785411 970.229492188
581531.875 4785385.5 973.586669922
581666 4785370 977.89642334
581561.4375 4785383 974.332580566
581431.5625 4785399 970.578125
581565.1875 4785383 974.443237305
581334.375 4785411 970.311706543
581676.3125 4785370 978.351928711
581547.125 4785386 974.014221191
581339.9375 4785411 970.289123535
581450.1875 4785399 971.076904297
581592.4375 4785381.5 975.478088379
581353.3125 4785411 970.234802246
581598.875 4785381.5 975.688476562
581561.25 4785386.5 974.505249023
581700.125 4785370 979.502319336
581565.5 4785386.5 974.729553223
581366.5 4785411 970.16973877
581465.125 4785399 971.659423828
581372.4375 4785411 970.109313965
581623.25 4785380.5 976.804931641
581708.625 4785370 979.908813477
581334.375 4785416 970.327331543
581632.9375 4785380 977.249023438
581339.875 4785416 970.360839844
581385.625 4785410.5 970.034362793
581482.5 4785399 972.341064453
581579.375 4785387 975.446960449
581654 4785379 978.193969727
581734.375 4785370 981.257385254
581398.875 4785411 970.188781738
581666.9375 4785378.5 978.725036621
581498.9375 4785399 972.98614502
581592 4785387.5 975.895507812
581740.875 4785370 981.567687988
581404.5625 4785411 970.271057129
581366.625 4785416 970.244140625
581684.75 4785377.5 979.528503418
581599.625 4785388 976.328735352
581372.3125 4785416 970.241149902
581514.8125 4785399 973.611450195
581700.9375 4785377 980.237121582
581417.875 4785411.5 970.62322998
581715.3125 4785376 981.063964844
581611.6875 4785389 977.006774902
581768.625 4785370 982.96673584
581532.625 4785399 974.223083496
581773.1875 4785370 983.19329834
581432.125 4785412 971.0546875
581735.1875 4785375 981.979675293
581399 4785416 970.317504883
581435.875 4785412 971.158325195
581404.375 4785416 970.431884766
581622.375 4785389.5 977.584472656
581745.9375 4785374.5 982.546020508
581547.125 4785399 974.70135498
581769.3125 4785373.5 983.559570312
581321 4785428 970.28302002
581450.1875 4785412.5 971.606933594
581634.125 4785390 978.286804199
581802.3125 4785370 984.174194336
581776.75 4785373 983.875549316
581432.25 4785415 971.171447754
581566.5625 4785399 975.65838623
581805.5 4785370 984.278747559
581435.6875 4785415 971.278869629
581334.4375 4785428 970.36529541
581644 4785390.5 978.885742188
581579.375 4785399 976.273193359
581465.8125 4785413 972.259887695
581466.875 4785413 972.303283691
581802.8125 4785372.5 984.619995117
581808.0625 4785372.5 984.761047363
581652.75 4785391 979.303222656
581465.8125 4785414 972.299987793
581466.8125 4785414 972.335205078
581353.3125 4785428 970.481506348
581835.4375 4785370 984.921264648
581837.8125 4785370 984.972351074
581600.8125 4785399 977.37689209
581482.5 4785413.5 972.894165039
581366.875 4785428 970.476013184
581497.875 4785413 973.438110352
581611.6875 4785399 977.927001953
581835.8125 4785372 985.26171875
581499.5 4785412.5 973.49987793
581668.8125 4785392.5 980.372314453
581839.6875 4785371.5 985.352844238
581497.8125 4785414.5 973.490783691
581385.625 4785428 970.466003418
581676.3125 4785393 980.879150391
581499.5625 4785414.5 973.56817627
581868.1875 4785370 985.308837891
581870.125 4785370 985.330383301
581528.75 4785411.5 974.689697266
581682.875 4785393 981.171813965
581533.3125 4785411.5 974.839111328
581635.125 4785399 979.19152832
581399.5 4785428 970.782592773
581868.5 4785371.5 985.615234375
581644 4785399 979.65838623
581871.6875 4785371.5 985.592712402
581514.8125 4785415 974.263671875
581559.4375 4785410 976.092956543
581567.4375 4785409.5 976.459960938
581417.875 4785428 971.187988281
581321 4785440 970.249084473
581900.5625 4785370 985.372253418
581816.9375 4785380.5 987
581902.375 4785370 985.36505127
581805.5 4785382 987
581528.5625 4785415.5 974.849365234
581789.0625 4785384.5 987
581590 4785408.5 977.640625
581837.8125 4785378.5 987
581669.6875 4785399 981.175231934
581704.0625 4785395 982.980102539
581432.8125 4785428 971.672912598
581334.5 4785440 970.433654785
581533.6875 4785416 975.169311523
581900.8125 4785371.5 985.626525879
581601.75 4785408 978.196350098
581676.3125 4785399 981.542541504
581904 4785371.5 985.577514648
581708.625 4785395.5 983.410583496
581339.75 4785440 970.466003418
581847.25 4785378.5 987
581712.4375 4785395.5 983.62286377
581620.5625 4785407 979.202148438
581450.1875 4785428 972.233459473
581870.125 4785377.5 987
581930.875 4785370 983.651062012
581353.3125 4785440.5 970.541931152
581547.125 4785416.5 975.902404785
581773.1875 4785389.5 987
581636 4785406 979.959533691
581934.6875 4785370 983.391235352
581651 4785405.5 980.847595215
581764.9375 4785391.5 987
581704.75 4785399 983.621582031
581466.4375 4785428 972.839233398
581367.125 4785440.5 970.691101074
581708.625 4785399 983.892028809
581558.9375 4785417.5 976.559265137
581334.5 4785445 970.420227051
581371.8125 4785440.5 970.688537598
581670.5 4785404 981.870117188
581931.5625 4785373 984.217651367
581339.6875 4785445 970.488647461
581681.375 4785403.5 982.541748047
581482.5 4785428 973.4375
581961 4785370 981.683532715
581568.25 4785418 977.168273926
581881.25 4785380 987
581385.625 4785440.5 970.776184082
581938.375 4785373.5 983.737670898
581967 4785370 981.374816895
581705.3125 4785402 984.072753906
581711.375 4785401.5 984.575012207
581740.125 4785398.5 986.332946777
581740.875 4785398.5 986.406616211
581741.5625 4785398.5 986.438110352
581500.25 4785428 974.182006836
581740.3125 4785399 986.45892334
581740.875 4785399 986.504272461
581579.375 4785418.5 977.851928711
581367.125 4785444.5 970.711914062
581740.375 4785399.5 986.552429199
581399.9375 4785441 971.139709473
581741.3125 4785399.5 986.626159668
581902.375 4785380 987
581371.6875 4785444.5 970.786804199
581747.625 4785399 987
581403.5 4785441 971.220397949
581742.375 4785400.5 987
581991.875 4785370 980.444030762
581514.8125 4785428 974.783325195
581589.0625 4785419.5 978.452453613
581740.875 4785401 987
581771.5625 4785397.5 988.448730469
581999.3125 4785370 980.215209961
581961.8125 4785374.5 982.446289062
581775 4785397.5 988.609741211
581417.875 4785441.5 971.627624512
581400 4785444 971.219177246
581915.25 4785381.5 987
581534.5625 4785428 975.942871094
581773.1875 4785399 988.904968262
581403.375 4785444 971.316955566
581775.5625 4785399 989.062255859
581802.0625 4785396 990.019836426
581972.75 4785375 981.90045166
581603.1875 4785420.5 979.494873047
581809.1875 4785395.5 990.250610352
582023.3125 4785370 979.662719727
581547.125 4785428 976.657714844
581433.375 4785442 972.151184082
581434.6875 4785442 972.194824219
581770.5625 4785401.5 989.335754395
581611.6875 4785421 980.06652832
582031.625 4785370 979.475646973
581718.9375 4785408.5 987
581433.4375 4785443 972.19152832
581434.625 4785443 972.230529785
581773.1875 4785402 989.868835449
581321 4785457 970.201538086
581833.4375 4785395 990.866882324
581776.625 4785402 990.028625488
581992.75 4785376 981.246948242
581619.0625 4785421.5 980.528625488
581805.5 4785399 991.030456543
581569.1875 4785428 977.988220215
581450.1875 4785442.5 972.723571777
581842.375 4785395 991.048950195
581810.25 4785399 991.174560547
581334.4375 4785457 970.377807617
582054.0625 4785370 978.304321289
581579.375 4785428 978.59362793
581465.6875 4785442 973.316894531
582006.25 4785376.5 980.84185791
581467.0625 4785442 973.364990234
582063.875 4785370 977.792602539
581465.6875 4785443 973.355529785
581353.3125 4785457 970.624511719
581467.125 4785443 973.416992188
581865.5625 4785395 991.003356934
581934.6875 4785387 987
581837.8125 4785399 992.067565918
581638.6875 4785423.5 982.335205078
581708.625 4785415 987
581496.625 4785440.5 974.533935547
582024.1875 4785376.5 980.475708008
581874.5 4785395 990.861328125
581500.875 4785440.5 974.704528809
581604.0625 4785428 980.246398926
581799.625 4785404.5 992.173034668
581843.5 4785399 992.024414062
581367.3125 4785457 970.869262695
582084.25 4785370 976.472412109
581644 4785423.5 982.798339844
[...]
POINT_DATA 6837
FIELD attributes 1
U 3 6837 float
10.5820531845 1.13020148795e-10 0.0978981554508
10.5751047134 1.47010927737e-11 0.175731360912
10.4964790344 -1.51454515596e-10 0.28154656291
10.4747018814 -1.17028192692e-10 0.347538918257
10.3225765228 -1.21365723027e-10 0.433737128973
10.3014392853 3.37225525282e-11 0.494135707617
10.592751503 8.19362286353e-11 0.0570252649486
10.0915565491 2.90975049611e-10 0.574035346508
10.9085168839 0.000125787220895 0.178733766079
10.0856752396 1.78001585693e-10 0.632047474384
10.8810853958 0.000125242295326 0.213695570827
10.5101947784 -1.32275108626e-05 0.281713962555
9.87299919128 5.51957958506e-11 0.69841593504
10.8259468079 8.56011465658e-05 0.341508805752
9.86714076996 -3.24308913058e-11 0.750596940517
10.7662229538 8.46337061375e-05 0.373168647289
10.343129158 -2.93147440971e-05 0.434291392565
10.9238204956 0.000126620550873 0.160839140415
9.64924812317 -1.43117864781e-10 0.788814783096
10.8912935257 0.00013976090122 0.213195040822
10.6623659134 0.000144523655763 0.486589848995
10.579665184 0.000144434103277 0.5179926157
9.62510681152 -6.86714504705e-11 0.826159536839
10.1310081482 -8.9293862402e-06 0.575580060482
10.8366470337 0.000101195197203 0.342198878527
9.40791320801 -7.63758067207e-12 0.831188976765
10.7849369049 8.61756998347e-05 0.37261351943
10.5214920044 0.000277676648693 0.630423843861
9.3284330368 -6.02855872861e-12 0.843886971474
10.460059166 0.000282306107692 0.651835143566
10.6807670593 0.000147140148329 0.487817615271
9.09136962891 -2.30939291128e-12 0.81934607029
9.92085075378 3.14782082569e-05 0.700842857361
10.6160516739 0.000171291729202 0.517494797707
10.6330375671 0 0
8.98792648315 -1.96540735076e-11 0.80892843008
10.398182869 0.000459390721517 0.757477462292
10.6284170151 -1.36726230267e-05 0.122342653573
10.5504455566 0.000302866712445 0.632447481155
10.3595075607 0.000465035263915 0.765490114689
10.4911441803 0.000327953894157 0.652061343193
8.79010868073 -4.35196288728e-11 0.772216081619
10.5313177109 2.72613851848e-05 0.282016992569
9.71077823639 8.57063714648e-05 0.792750060558
10.4175815582 0.000491038081236 0.758870005608
8.65582275391 6.11549422214e-11 0.742383599281
10.3811454773 0.000500315451063 0.766205728054
10.5143871307 1.01036221167e-05 0.351577281952
8.49300861359 1.190989668e-10 0.705662846565
10.2715978622 0.00070959731238 0.846004188061
10.2629117966 0.000711314729415 0.8462895751
10.2763290405 0.000718216702808 0.846355259418
10.2679729462 0.000719163333997 0.846594810486
10.377245903 -2.97719489026e-05 0.435286700726
8.3651714325 -5.08934075438e-11 0.665775954723
9.48534870148 0.000155572488438 0.837255179882
10.3690414429 -8.56291171658e-06 0.501294910908
9.99709415436 0.000897385412827 0.872619092464
8.27270507812 -1.09250122837e-10 0.640408635139
9.98706245422 0.00089479383314 0.873830258846
10.0026578903 0.000909857801162 0.87307626009
10.1946611404 5.00272326462e-05 0.578173875809
10.6354999542 0 0
9.99344062805 0.000913986121304 0.874597549438
8.10165691376 -1.20612478338e-10 0.590093851089
9.62073802948 0.00101465673652 0.843894898891
10.1873311996 9.01800885913e-05 0.642686724663
9.59310340881 0.00100579170976 0.841363191605
10.9526424408 0.000150969528477 0.1650685817
8.03134918213 -1.25604984746e-10 0.572631716728
9.20444774628 0.000231834332226 0.829741477966
10.9238042831 0.000162551106769 0.21139100194
9.98722267151 0.000159708491992 0.704335510731
9.23411560059 0.00104890670627 0.780565142632
10.5432300568 2.72170436801e-05 0.282150059938
9.1777305603 0.00102974893525 0.769687950611
9.63910961151 0.00105328590143 0.845912575722
7.85482645035 7.49879186523e-11 0.519853591919
9.61691570282 0.00105677894317 0.84407889843
10.8843584061 0.00010580727394 0.345096439123
9.98195838928 0.000207328150282 0.761942386627
10.8404741287 9.31089307414e-05 0.370747357607
8.86200523376 0.000973293092102 0.70180696249
7.81562042236 1.15833856396e-10 0.510065078735
10.9540672302 0.00015116907889 0.165286764503
8.78131866455 0.000930900045205 0.681814491749
10.9310913086 0.000157390153618 0.211031198502
10.3996067047 -2.52958870988e-05 0.435884177685
9.78329372406 0.000237470449065 0.797556102276
8.97040843964 0.000316415913403 0.79058945179
8.51819229126 0.000782775285188 0.621808052063
7.64656066895 1.4138499399e-11 0.458718836308
10.7657155991 0.000177387642907 0.493191450834
8.39800453186 0.000735566136427 0.591931045055
9.75844860077 0.000296334153973 0.838602125645
9.28495979309 0.00112836284097 0.787083208561
7.62602615356 0 0.453793555498
10.7170343399 0.000195991146029 0.515827417374
10.8917484283 0.000100032404589 0.345571786165
8.20122814178 0.000536303094123 0.547535777092
9.23784351349 0.00112395000178 0.776618659496
10.8554935455 9.16767821764e-05 0.370300590992
9.55991649628 0.000298081780784 0.843318402767
8.05926036835 0.000485439202748 0.512286245823
10.2308082581 4.82665127493e-05 0.579567909241
7.95244073868 0.000300958636217 0.487843632698
8.74864864349 0.000394276023144 0.732953488827
7.4529299736 0 0.404785871506
9.49353599548 0.000364818202797 0.858972072601
7.4453368187 0 0.402782648802
10.6696424484 0.000379101082217 0.640383005142
7.79420375824 0.000254531856626 0.449622750282
10.7794542313 0.000176927045686 0.494106471539
10.6336183548 0.000395386712626 0.652688920498
10.737947464 0.000190832070075 0.515540003777
8.96735095978 0.00110486510675 0.716359913349
7.72885990143 0.000146984923049 0.436895757914
9.29772949219 0.00035464798566 0.838596940041
7.55250835419 0.000113536370918 0.397437244654
10.638967514 0 0
10.0392332077 0.000144490448292 0.70695656538
8.88912296295 0.00107445323374 0.6946824193
7.22027206421 6.41009814673e-11 0.354110151529
7.51000118256 6.9442394306e-05 0.391160488129
10.6834430695 0.000377291115001 0.641345798969
9.22810649872 0.0004241518036 0.831219434738
7.21105527878 6.88961665496e-11 0.352850526571
10.6515207291 0.000389170425478 0.652817130089
10.6428918839 -1.33631810968e-05 0.124656327069
8.57081604004 0.000446658552391 0.672210156918
9.08957576752 0.000422040960984 0.803041756153
10.5712308884 0.000611695868429 0.769440233707
10.5609836578 0.000614809454419 0.771634340286
7.28648424149 5.28963428224e-05 0.348924010992
7.2537612915 3.99646414735e-05 0.345326513052
8.67893123627 0.000971339584794 0.644596874714
10.5765256882 0.000610424496699 0.769819617271
10.5663318634 0.000612588424701 0.771811544895
10.560418129 6.53118695482e-06 0.282393664122
6.96078014374 2.91631909594e-12 0.308161973953
6.95279312134 -3.66933588548e-13 0.307380884886
8.98541736603 0.000483077892568 0.773801028728
9.84486103058 0.000202856535907 0.801467359066
10.5517816544 -7.00242117091e-06 0.355372667313
10.3799619675 0.000825404480565 0.852444052696
8.88591384888 0.000490961188916 0.747908949852
7.00717687607 3.10273826472e-05 0.304684787989
10.3746709824 0.000828820164315 0.85644364357
8.58228302002 0.000894826720469 0.614547610283
6.98634910583 2.8594813557e-05 0.302868485451
10.3839817047 0.000819558394141 0.852633476257
10.4325990677 -3.44457403116e-05 0.436849504709
8.40901851654 0.000448750011856 0.611472785473
10.3789739609 0.000819869805127 0.857034623623
6.69132423401 -6.73378922067e-11 0.268079817295
6.68383979797 -7.01759692023e-11 0.267502397299
10.1094722748 0.00100047478918 0.882052302361
8.44811630249 0.000756095862016 0.582289159298
10.0851612091 0.00100968277548 0.885741829872
8.75109004974 0.000519696914125 0.703006327152
10.4324932098 -1.72256040969e-05 0.507999122143
6.730052948 2.40397548623e-05 0.265867173672
8.68729305267 0.000523529597558 0.684891045094
6.70453453064 2.56435851043e-05 0.26385140419
9.64106082916 0.000237711123191 0.849651038647
9.8090057373 0.00113926129416 0.865082383156
9.76169300079 0.00114291463979 0.861000835896
10.2794828415 2.37897202169e-05 0.581556975842
10.6367673874 0 0
6.41805362701 -2.56654419939e-12 0.233758211136
7.43581581116 5.20698122273e-05 0.359051823616
6.40882301331 0 0.233165800571
7.5632314682 8.23707232485e-05 0.378442853689
10.1239557266 0.00097528117476 0.883236467838
7.76504611969 9.91400229395e-05 0.411941498518
9.49856472015 0.00122065888718 0.815157949924
7.20354223251 4.26556252933e-05 0.323712289333
8.54180908203 0.000502243929077 0.631869852543
8.38016891479 0.000627217814326 0.551910400391
10.2781276703 5.53779900656e-05 0.65216165781
10.9637327194 2.45468472713e-05 0.166731104255
10.1091270447 0.000968037813436 0.888629972935
6.44932126999 2.5027713491e-05 0.231600284576
9.41417884827 0.00120846345089 0.797565579414
8.50813674927 0.000495456741191 0.621846556664
6.42375135422 2.68140520348e-05 0.229749962687
8.32664489746 0.000412335735746 0.559404850006
10.9417934418 3.01511499856e-05 0.210466012359
7.10899496078 3.22076339216e-05 0.31060218811
8.33956050873 0.000531171273906 0.540494143963
9.18694972992 0.00120800745208 0.747446417809
10.1006708145 0.000101299105154 0.710194051266
6.88132667542 2.79729556496e-05 0.27904510498
5.98892641068 0 0.197235286236
10.5646505356 1.27133707792e-05 0.282447040081
9.46082210541 0.000268839474302 0.853588283062
7.9604883194 0.000183534939424 0.444382667542
9.06375980377 0.00115839019418 0.716200649738
5.94541168213 0 0.194953039289
8.90335464478 0.00105866300873 0.677105247974
8.07053565979 0.000203600458917 0.464158147573
8.40184497833 0.000436507601989 0.569477319717
10.0921154022 0.000135440306622 0.772802650928
10.9362983704 9.25085078052e-06 0.348417311907
8.39689540863 0.000428784434916 0.566275835037
9.85854625702 0.00106815074105 0.870513021946
10.9625101089 2.45192950388e-05 0.166543960571
10.906498909 2.40425401898e-06 0.368735641241
8.75041675568 0.000952602364123 0.635748445988
6.05511665344 5.24476054125e-05 0.193719357252
10.9441013336 2.44942166319e-05 0.210352554917
8.65424633026 0.000813355669379 0.611819386482
9.90526199341 0.000150999170728 0.805489838123
5.57384490967 0 0.166803613305
9.82050323486 0.00104591075797 0.867685317993
6.78194952011 3.11949224852e-05 0.266551464796
10.456366539 -1.96643195522e-05 0.437520623207
5.96492815018 6.09455819358e-05 0.187513694167
5.52002286911 0 0.16414450109
8.50825595856 0.000651049544103 0.568055272102
8.48370361328 0.000555377046112 0.5603556633
8.31258964539 0.00038130566827 0.512294232845
8.3083562851 0.000356960634235 0.51445877552
8.30835914612 0.00036871881457 0.511173725128
9.88355445862 0.000190684921108 0.850256919861
8.32178497314 0.000359105411917 0.515959560871
8.32211875916 0.000357929151505 0.515693545341
9.31728649139 0.000315699842758 0.826210737228
10.9383687973 4.11679457102e-06 0.348550498486
8.33875656128 0.000383350969059 0.515504062176
10.8673725128 2.56135008385e-05 0.499875605106
8.33636856079 0.000371490052203 0.514797091484
6.59419679642 3.06477377308e-05 0.242949530482
10.9177074432 2.29968304666e-06 0.368399262428
8.30198097229 0.000345518725226 0.505725800991
10.840546608 3.38222816936e-05 0.514054954052
8.37216854095 0.00035674276296 0.51833486557
5.26500558853 0 0.144925057888
9.70562362671 0.000186708770343 0.854931414127
9.59729003906 0.00108871806879 0.827761471272
8.39201068878 0.00035784082138 0.521898150444
8.17450237274 0.000254235550528 0.471433192492
5.2181801796 0 0.142697691917
5.66184473038 8.50697324495e-05 0.1610224545
8.14559078217 0.000254083686741 0.463680893183
10.317404747 2.56407638517e-05 0.583072304726
10.8758659363 2.56778439507e-05 0.500437617302
6.49236345291 3.39455291396e-05 0.231343701482
9.69187545776 0.000235445782891 0.877061128616
8.18003082275 0.000259421824012 0.471202999353
10.853105545 2.81950960925e-05 0.513879179955
8.17043685913 0.000259163178271 0.467635452747
7.99459791183 0.000180665010703 0.428608119488
5.55061578751 9.07795401872e-05 0.153929889202
9.53589630127 0.00103004858829 0.811516404152
7.92606592178 0.000168666490936 0.412781149149
5.02555942535 0 0.128581300378
9.5632982254 0.000228632925428 0.863291442394
10.7992591858 8.87936548679e-05 0.649323642254
10.7875833511 9.23533953028e-05 0.653678059578
8.30559253693 0.000239980683546 0.487820357084
9.20508003235 0.00037492273259 0.781922459602
4.98333597183 0 0.126686319709
8.70357227325 0.00040643842658 0.581796824932
10.8040313721 8.67632916197e-05 0.649655163288
10.7928848267 8.80108782439e-05 0.65371465683
8.29107284546 0.000249893200817 0.484718888998
10.6336860657 0 0
7.7327208519 0.000122688623378 0.379398018122
8.3087720871 0.000235066298046 0.480526566505
5.35704565048 0.000102412785054 0.137736961246
9.36597537994 0.00100232544355 0.772061169147
8.02965068817 0.000184024320333 0.433199256659
9.51738071442 0.000287588307401 0.857984244823
10.1487627029 7.88568358985e-05 0.712679326534
7.6405954361 0.000100550802017 0.360891520977
7.98944854736 0.000182098825462 0.423709332943
10.6436958313 -7.13997951607e-06 0.124778881669
4.75251245499 0 0.113331206143
9.4242105484 0.000289567891741 0.837382853031
10.6722736359 0.000135809343192 0.774465680122
5.25614213943 0.000101730445749 0.131778568029
10.6695280075 0.000138616582262 0.779610157013
4.67801094055 0 0.110438831151
10.6747531891 0.000133800960612 0.774495661259
10.5704193115 -7.88832039689e-06 0.282529771328
10.6723651886 0.000134139423608 0.78008210659
7.40396165848 7.42934425944e-05 0.328343033791
6.33855676651 5.04157214891e-05 0.213830024004
7.78483867645 0.00013309129281 0.38837787509
9.31005954742 0.000858578423504 0.745402812958
8.85032939911 0.000405554717872 0.60998749733
10.4634428024 0.000173177948454 0.856577038765
5.11776208878 0.000107778927486 0.120822645724
7.28403759003 5.86524947721e-05 0.309877306223
10.4503936768 0.000182766991202 0.867037177086
9.35926818848 0.000352106144419 0.809303224087
8.30226993561 0.000162259020726 0.464105904102
7.71248054504 0.000129368825583 0.374837219715
10.5790710449 -1.30545640786e-05 0.358162909746
4.45619440079 0 0.0996749252081
9.16049003601 0.000415047281422 0.735295534134
9.30463123322 0.000361354497727 0.792782843113
9.97223758698 9.82939891401e-05 0.809838712215
9.22732162476 0.000771647086367 0.722821474075
10.2483844757 0.00022012151021 0.893698751926
4.35897302628 0 0.0963044911623
8.29909133911 0.000167021164089 0.464737713337
9.00222206116 0.000421408767579 0.640700519085
10.2189264297 0.000240688124904 0.902026414871
4.98668813705 0.000109166103357 0.113701015711
10.4869146347 -2.08027631743e-05 0.438399672508
8.24080276489 0.000132278408273 0.442331939936
7.43973112106 9.88345345831e-05 0.337268620729
10.4738750458 0.000159905423061 0.857091605663
10.0073194504 0.000285369635094 0.887028336525
7.3384346962 9.52280606725e-05 0.322041600943
4.18308782578 0 0.0893043652177
6.93757152557 5.74024743401e-05 0.271970003843
10.4950761795 -1.52649245138e-05 0.514637589455
10.4689331055 0.000158955983352 0.86963057518
9.2551240921 0.00040626473492 0.751376867294
9.94472694397 0.000316748308251 0.881949484348
9.23905944824 0.000411886721849 0.74381929636
4.83999729156 0.000119990079838 0.103906974196
6.86092424393 5.33291749889e-05 0.261502891779
9.75752353668 0.000364227744285 0.848398208618
8.14599609375 9.47776497924e-05 0.42262917757
4.08292531967 0 0.0863171666861
9.66058254242 0.00039978735731 0.82592612505
10.3619270325 -3.84870554626e-06 0.584875881672
10.625998497 0 0
9.8465013504 9.41512698773e-05 0.866095781326
9.54283428192 0.00043183521484 0.79652518034
6.93899583817 8.23295486043e-05 0.276381880045
9.1810503006 0.000528407574166 0.688219726086
8.10323238373 0.000117018549645 0.423710227013
9.15432357788 0.000410463428125 0.688201665878
7.97204017639 4.73610271001e-05 0.38887989521
6.90182113647 7.91969287093e-05 0.269857823849
3.95365977287 0 0.0829964354634
9.16588115692 0.000488283461891 0.683497488499
9.42531299591 0.000449150800705 0.75914645195
9.37082195282 0.000454561086372 0.743159234524
10.9511976242 4.47438742412e-06 0.164798766375
10.3616285324 7.22560344002e-06 0.660917282104
9.18175411224 0.000411249231547 0.692250490189
4.64167499542 0.000127212450025 0.0941094085574
6.59357309341 5.6091677834e-05 0.23326292634
9.17981338501 0.000411225686548 0.690857470036
10.9317340851 4.32682918472e-06 0.210942015052
10.2891902924 0.00017700123135 0.897110104561
7.80344867706 2.93640405289e-05 0.365829467773
6.51971244812 6.04972483416e-05 0.225406274199
9.2235660553 0.000424313911935 0.693421661854
9.21632766724 0.000421066040872 0.690585553646
3.86475896835 0 0.0810859054327
9.19586753845 0.000401402037824 0.679810762405
10.1970129013 2.07723260246e-05 0.715205550194
9.1411447525 0.000281809159787 0.650448381901
4.53242111206 0.000135990572744 0.0878026038408
7.53511190414 3.9728183765e-06 0.328940838575
9.13230609894 0.000287023140118 0.643244922161
7.70002841949 8.69507930474e-05 0.364353299141
10.575378418 -4.67210929855e-06 0.282598793507
10.2688684464 0.000174218905158 0.908096134663
9.11785697937 0.000167446167325 0.619055449963
6.6065530777 7.69352773204e-05 0.23785366118
7.19112157822 1.57837948791e-05 0.293278425932
9.07801055908 0.000186626319191 0.598737180233
6.55550909042 7.58111345931e-05 0.231402665377
9.28353118896 0.000396478135372 0.697526991367
3.75518751144 0 0.0805447697639
6.99681472778 1.80224142241e-05 0.270853459835
9.05008602142 0.000130090353196 0.58153629303
7.11248493195 7.50572580728e-05 0.293173193932
10.1942768097 3.05765497615e-05 0.782928526402
9.14022350311 0.000316189281875 0.646180570126
10.9644050598 3.78770096177e-07 0.350211173296
9.32320308685 0.000382019323297 0.705543100834
9.76219654083 8.9356348326e-05 0.881658375263
8.93754196167 0.00013423182827 0.54578357935
9.15744590759 0.000313363445457 0.644852340221
10.9461984634 4.45359773948e-06 0.164033040404
10.9465427399 -1.22438007111e-06 0.367513477802
3.66560506821 0 0.0796469002962
10.9340677261 3.93545633415e-06 0.210827693343
8.88100147247 0.000108900349005 0.531195938587
6.73211336136 2.65242742898e-05 0.24374447763
10.0274438858 3.32185918523e-05 0.813466191292
6.63233852386 3.31397641276e-05 0.23252555728
6.71120882034 7.20946554793e-05 0.247223898768
10.0903863907 0.000195345317479 0.896195054054
6.12658882141 8.88673457666e-05 0.191863775253
6.08893346786 9.18611622183e-05 0.188792839646
6.08626270294 8.8422690169e-05 0.189125359058
6.08207035065 9.21314640436e-05 0.188353672624
6.09278678894 8.84301771293e-05 0.189424216747
6.0907292366 8.84362234501e-05 0.189324066043
6.09662055969 9.16520875762e-05 0.189296767116
6.0917673111 9.19992016861e-05 0.188986510038
3.57830667496 0 0.0816324651241
9.30434894562 0.000263419264229 0.673089623451
4.28180837631 0.000144931749674 0.0769692957401
8.68462371826 6.80077428115e-05 0.484187036753
10.5161132812 -1.51212134369e-05 0.439229726791
5.63939714432 0.00012643498485 0.154750496149
6.110476017 8.80385414348e-05 0.190194025636
5.61371231079 8.57373524923e-05 0.158868581057
5.58244037628 0.000125524791656 0.15137912333
4.23196792603 0.000148559949594 0.0745785236359
10.9661912918 8.13092810859e-08 0.350325971842
8.60378646851 5.47815143364e-05 0.470685303211
10.0541934967 4.25532743975e-05 0.86620092392
9.17039680481 0.000207225966733 0.619013190269
9.27257061005 0.000303537439322 0.662680029869
10.9570760727 -5.54101859507e-07 0.367196202278
6.09586954117 8.67293929332e-05 0.188809737563
5.28538751602 0.000144297737279 0.130274116993
3.49715256691 0 0.0822347402573
9.20186710358 0.000203198942472 0.613655745983
9.60831260681 0.00033179888851 0.764521062374
10.0532436371 0.000189227139344 0.894336402416
5.23640537262 8.20170535007e-05 0.136351287365
9.93303489685 3.88406697311e-05 0.873003840446
10.9751081467 6.18148123976e-06 0.506966352463
5.17691993713 0.000142865945236 0.12435759604
9.42754268646 0.000217687906115 0.677963793278
10.9664850235 7.10954418537e-06 0.512255430222
5.68150758743 8.62419256009e-05 0.161770686507
4.92529058456 0.000155874688062 0.108450897038
5.65673923492 8.5949744971e-05 0.16064876318
4.82849264145 7.21993856132e-05 0.115855902433
3.40555644035 0 0.086236782372
8.32804107666 -1.27478697323e-05 0.419075936079
10.9788780212 6.43575640424e-06 0.507215201855
9.71539115906 0.000101043930044 0.867049157619
10.9714517593 6.6857433012e-06 0.512185454369