# vtk DataFile Version 2.0
sampleSurface
ASCII
DATASET POLYDATA
POINTS 961 double
581321 4785370 1100
581353.375 4785370 1100
581385.625 4785370 1100
581417.75 4785370 1100
581449.875 4785370 1100
581482.125 4785370 1100
581514.4375 4785370 1100
581546.75 4785370 1100
581579 4785370 1100
581611.1875 4785370 1100
581643.4375 4785370 1100
581675.6875 4785370 1100
581707.8125 4785370 1100
581740.0625 4785370 1100
581772.5 4785370 1100
581805 4785370 1100
581837.6875 4785370 1100
581870.375 4785370 1100
581902.875 4785370 1100
581935.4375 4785370 1100
581967.75 4785370 1100
581999.875 4785370 1100
582032.125 4785370 1100
582064.5625 4785370 1100
582096.875 4785370 1100
582129 4785370 1100
582161.1875 4785370 1100
582193.4375 4785370 1100
582225.6875 4785370 1100
582258 4785370 1100
582290 4785370 1100
581321 4785399 1100
581353.375 4785399 1100
581385.625 4785398.5 1100
581417.6875 4785398.5 1100
581449.875 4785398.5 1100
581482.125 4785398.5 1100
581514.375 4785398.5 1100
581546.6875 4785398.5 1100
581578.875 4785398 1100
581611.0625 4785398 1100
581643.25 4785397.5 1100
581675.25 4785397 1100
581707.375 4785396.5 1100
581739.75 4785396 1100
581772.3125 4785395.5 1100
581804.9375 4785395 1100
581837.875 4785395 1100
581870.5625 4785395.5 1100
581903 4785396.5 1100
581935.5625 4785396.5 1100
581968.0625 4785396.5 1100
582000.3125 4785397 1100
582032.4375 4785397.5 1100
582064.8125 4785398 1100
582097.0625 4785398.5 1100
582129.0625 4785398.5 1100
582161.1875 4785398.5 1100
582193.4375 4785398.5 1100
582225.75 4785398.5 1100
582258 4785398.5 1100
582290 4785398.5 1100
581321 4785428 1100
581353.25 4785428 1100
581385.5 4785427.5 1100
581417.625 4785427.5 1100
581449.875 4785427.5 1100
581482.0625 4785427.5 1100
581514.3125 4785427.5 1100
581546.5 4785427.5 1100
581578.6875 4785427 1100
581610.6875 4785426.5 1100
581642.625 4785425.5 1100
581674.5 4785424.5 1100
581706.875 4785424.5 1100
581739.625 4785424 1100
581772.5 4785424 1100
581805.125 4785424 1100
581838.0625 4785424 1100
581870.75 4785424.5 1100
581903.1875 4785425 1100
581935.6875 4785425.5 1100
581968.25 4785425.5 1100
582000.625 4785426 1100
582032.875 4785426.5 1100
582065.1875 4785427 1100
582097.375 4785427 1100
582129.3125 4785427.5 1100
582161.25 4785427.5 1100
582193.4375 4785427.5 1100
582225.6875 4785427.5 1100
582258 4785427.5 1100
582290 4785427.5 1100
581321 4785457 1100
581353.125 4785457 1100
581385.375 4785456.5 1100
581417.5625 4785456.5 1100
581449.8125 4785456.5 1100
581482 4785456.5 1100
581514.125 4785456.5 1100
581546.25 4785456 1100
581578.1875 4785455.5 1100
581610.3125 4785455 1100
581641.875 4785454 1100
581673.9375 4785453 1100
581706.6875 4785453 1100
581739.3125 4785453 1100
581772.4375 4785453 1100
581805.25 4785453 1100
581838.375 4785453 1100
581871 4785453.5 1100
581903.5625 4785454 1100
581936 4785454.5 1100
581968.4375 4785454.5 1100
582000.8125 4785454.5 1100
582033.25 4785455 1100
582065.625 4785455.5 1100
582097.75 4785456 1100
582129.5625 4785456 1100
582161.375 4785456.5 1100
582193.5 4785456.5 1100
582225.6875 4785456.5 1100
582257.9375 4785456.5 1100
582290 4785456.5 1100
581321 4785486 1100
581353 4785486 1100
581385.25 4785485.5 1100
581417.5 4785485.5 1100
581449.75 4785485.5 1100
581481.875 4785485.5 1100
581513.875 4785485 1100
581545.8125 4785484.5 1100
581577.75 4785484 1100
581609.375 4785483.5 1100
581643.875 4785486 1100
581676.1875 4785486 1100
581708.625 4785486 1100
581739.4375 4785482 1100
581772.25 4785482 1100
581805.25 4785482 1100
581838.4375 4785482 1100
581871.3125 4785482.5 1100
581903.875 4785482.5 1100
581936.3125 4785483 1100
581968.6875 4785483 1100
582001.125 4785483 1100
582033.75 4785483.5 1100
582066.0625 4785484.5 1100
582098.125 4785484.5 1100
582129.9375 4785485 1100
582161.625 4785485.5 1100
582193.625 4785485.5 1100
582225.6875 4785485.5 1100
582257.9375 4785485.5 1100
582290 4785485.5 1100
581321 4785515 1100
581352.875 4785514.5 1100
581385.1875 4785514.5 1100
581417.4375 4785514.5 1100
581449.625 4785514.5 1100
581481.75 4785514.5 1100
581513.5 4785514 1100
581545.25 4785513.5 1100
581577.4375 4785513 1100
581609.75 4785513 1100
581644 4785515 1100
581676.3125 4785515 1100
581708.625 4785515 1100
581739.375 4785511 1100
581772.0625 4785511 1100
581805.3125 4785511 1100
581838.625 4785511 1100
581871.6875 4785511.5 1100
581904.25 4785512 1100
581936.625 4785512 1100
581968.875 4785512.5 1100
582001.3125 4785512.5 1100
582034.0625 4785513 1100
582066.4375 4785513 1100
582098.375 4785513.5 1100
582130.3125 4785514 1100
582162 4785514.5 1100
582193.8125 4785514.5 1100
582225.75 4785514.5 1100
582257.9375 4785514.5 1100
582290 4785514.5 1100
581321 4785543.5 1100
581352.875 4785543.5 1100
581385.125 4785543.5 1100
581417.3125 4785543.5 1100
581449.5 4785543.5 1100
581481.5 4785543 1100
581512.75 4785542.5 1100
581544.3125 4785542 1100
581576.25 4785541.5 1100
581609.9375 4785542.5 1100
581642.4375 4785542.5 1100
581676.3125 4785544 1100
581706.3125 4785540 1100
581738.9375 4785540 1100
581772.0625 4785540 1100
581805.5625 4785540 1100
581839 4785540.5 1100
581872 4785541 1100
581904.625 4785541.5 1100
581936.9375 4785541.5 1100
581969.0625 4785542 1100
582001.5 4785542.5 1100
582034.125 4785542.5 1100
582066.5625 4785542.5 1100
582098.625 4785543 1100
582130.625 4785543 1100
582162.3125 4785543.5 1100
582193.9375 4785543.5 1100
582225.8125 4785543.5 1100
582258 4785543.5 1100
582290 4785543.5 1100
581321 4785572.5 1100
581352.8125 4785572.5 1100
581385.0625 4785572.5 1100
581417.25 4785572.5 1100
581449.3125 4785572.5 1100
581481.125 4785572 1100
581512.1875 4785571.5 1100
581543.1875 4785571 1100
581575.3125 4785570.5 1100
581608.875 4785571 1100
581641.4375 4785570.5 1100
581676.3125 4785573 1100
581705.625 4785569 1100
581738.8125 4785569 1100
581772.3125 4785569 1100
581806.125 4785569.5 1100
581839.5625 4785570 1100
581872.4375 4785570.5 1100
581905.0625 4785571 1100
581937.375 4785571.5 1100
581969.5 4785572.5 1100
582001.875 4785573 1100
582034.1875 4785573 1100
582066.375 4785573 1100
582098.5 4785572.5 1100
582130.5625 4785572 1100
582162.3125 4785572.5 1100
582193.9375 4785572.5 1100
582225.875 4785572.5 1100
582258.0625 4785572.5 1100
582290 4785573 1100
581321 4785601.5 1100
581352.8125 4785601.5 1100
581385 4785601.5 1100
581417.1875 4785601.5 1100
581449.0625 4785601.5 1100
581480.5625 4785601 1100
581512.0625 4785600.5 1100
581543.0625 4785600 1100
581575.75 4785600 1100
581609.1875 4785600.5 1100
581641.5 4785600 1100
581676.3125 4785602 1100
581707.25 4785600.5 1100
581740.9375 4785602 1100
581772.6875 4785599 1100
581806.8125 4785599.5 1100
581840.1875 4785600 1100
581873 4785601 1100
581905.875 4785601.5 1100
581938.0625 4785602.5 1100
581970.125 4785603 1100
582002.125 4785603.5 1100
582034.1875 4785603.5 1100
582066.125 4785603 1100
582098.125 4785602.5 1100
582130.1875 4785602 1100
582162.1875 4785601.5 1100
582193.875 4785601.5 1100
582225.9375 4785601.5 1100
582258.1875 4785602 1100
582290 4785602 1100
581321 4785630.5 1100
581352.75 4785630.5 1100
581384.9375 4785630.5 1100
581417.0625 4785630.5 1100
581448.8125 4785630.5 1100
581480 4785630 1100
581511.625 4785629.5 1100
581543.0625 4785629.5 1100
581575.6875 4785629.5 1100
581608.8125 4785629.5 1100
581644 4785631 1100
581676.375 4785631 1100
581708.625 4785631 1100
581740.9375 4785631 1100
581773.25 4785629.5 1100
581807.5625 4785630.5 1100
581840.9375 4785631 1100
581873.75 4785631.5 1100
581906.5 4785632 1100
581938.375 4785632.5 1100
581969.3125 4785632.5 1100
582002.0625 4785632.5 1100
582034.0625 4785632.5 1100
582065.875 4785632.5 1100
582097.875 4785632 1100
582129.75 4785631.5 1100
582161.9375 4785631 1100
582193.8125 4785631 1100
582225.9375 4785631 1100
582258.25 4785631 1100
582290 4785631 1100
581321 4785660 1100
581352.6875 4785659.5 1100
581384.875 4785659.5 1100
581416.9375 4785659.5 1100
581448.625 4785659 1100
581479.5 4785658.5 1100
581510.8125 4785658.5 1100
581542.875 4785658.5 1100
581575.625 4785658.5 1100
581611.75 4785660 1100
581644.0625 4785660 1100
581676.375 4785660 1100
581708.625 4785660 1100
581740.9375 4785660 1100
581773.625 4785662 1100
581807.625 4785661.5 1100
581841.125 4785661 1100
581874.1875 4785661 1100
581907 4785661.5 1100
581937.5 4785661 1100
581968.75 4785661 1100
582001.75 4785661.5 1100
582033.625 4785661 1100
582065.375 4785661 1100
582097.625 4785660.5 1100
582129.5625 4785660 1100
582161.875 4785660 1100
582193.8125 4785659.5 1100
582226 4785660 1100
582258.25 4785660 1100
582290 4785660 1100
581321 4785689 1100
581352.5625 4785689 1100
581384.75 4785688.5 1100
581416.75 4785688.5 1100
581448.375 4785688 1100
581479.5 4785687.5 1100
581510.6875 4785687.5 1100
581542.8125 4785687.5 1100
581575.75 4785687.5 1100
581608.1875 4785687.5 1100
581644.0625 4785689 1100
581676.3125 4785689 1100
581708.1875 4785689.5 1100
581740.6875 4785691.5 1100
581773.5625 4785691.5 1100
581807.3125 4785691.5 1100
581840.75 4785691 1100
581873.8125 4785690.5 1100
581904.875 4785689.5 1100
581937.375 4785689.5 1100
581967 4785689 1100
582001.5625 4785689.5 1100
582033.375 4785689.5 1100
582065 4785689 1100
582097.375 4785689 1100
582129.5 4785688.5 1100
582161.8125 4785688.5 1100
582193.9375 4785689 1100
582226.125 4785689 1100
582258.3125 4785689 1100
582290 4785689 1100
581321 4785717.5 1100
581352.5 4785718 1100
581384.625 4785717.5 1100
581416.5 4785717.5 1100
581448 4785717 1100
581479.3125 4785716.5 1100
581510.75 4785716.5 1100
581542.9375 4785716.5 1100
581579.25 4785718 1100
581608.1875 4785716.5 1100
581640.9375 4785717 1100
581675 4785718 1100
581709.125 4785719 1100
581741.3125 4785720 1100
581773.625 4785720.5 1100
581806.9375 4785720.5 1100
581840.125 4785720 1100
581872.5625 4785718.5 1100
581906.375 4785716.5 1100
581938.375 4785716.5 1100
581970.1875 4785717 1100
582001.8125 4785717 1100
582033.5 4785717 1100
582064.8125 4785717 1100
582097.1875 4785717 1100
582129.625 4785717 1100
582162 4785717.5 1100
582194.25 4785718 1100
582226.25 4785718 1100
[...]
CELL_DATA 1800
FIELD attributes 1
U 3 1800 float
13.948143959 -0.00741937337443 0.107274718583
13.948143959 -0.00741937337443 0.107274718583
13.975566864 -0.0150703787804 0.223267242312
13.975566864 -0.0150703787804 0.223267242312
14.0263700485 -0.022579157725 0.336650937796
14.0263700485 -0.022579157725 0.336650937796
14.09998703 -0.030234972015 0.446930468082
14.09998703 -0.030234972015 0.446930468082
14.1972122192 -0.0380991324782 0.552098572254
14.1972122192 -0.0380991324782 0.552098572254
14.3196191788 -0.0458108186722 0.649713516235
14.3196191788 -0.0458108186722 0.649713516235
14.4676475525 -0.0527478195727 0.736268937588
14.4676475525 -0.0527478195727 0.736268937588
14.6413841248 -0.0582798458636 0.807719945908
14.6413841248 -0.0582798458636 0.807719945908
14.8379421234 -0.0616299547255 0.859115481377
14.8379421234 -0.0616299547255 0.859115481377
15.054145813 -0.0616844631732 0.883939325809
15.054145813 -0.0616844631732 0.883939325809
15.2818384171 -0.0567104406655 0.875227749348
15.2818384171 -0.0567104406655 0.875227749348
15.5096197128 -0.0471921525896 0.825017392635
15.5096197128 -0.0471921525896 0.825017392635
15.7203369141 -0.0331799909472 0.726803898811
15.7203369141 -0.0331799909472 0.726803898811
15.8936853409 -0.0158621668816 0.578416764736
15.8936853409 -0.0158621668816 0.578416764736
16.0044708252 0.0036264678929 0.388136267662
16.0044708252 0.0036264678929 0.388136267662
16.0378704071 0.0231267511845 0.172006174922
16.0378704071 0.0231267511845 0.172006174922
15.990527153 0.0397425144911 -0.0459680184722
15.990527153 0.0397425144911 -0.0459680184722
15.8770284653 0.0516987554729 -0.242658883333
15.8770284653 0.0516987554729 -0.242658883333
15.7187738419 0.0569576062262 -0.405858516693
15.7187738419 0.0569576062262 -0.405858516693
15.5351428986 0.0590071417391 -0.531818211079
15.5351428986 0.0590071417391 -0.531818211079
15.34375 0.0591805838048 -0.618884027004
15.34375 0.0591805838048 -0.618884027004
15.1571874619 0.0567102245986 -0.671910822392
15.1571874619 0.0567102245986 -0.671910822392
14.9823541641 0.0517491400242 -0.696106612682
14.9823541641 0.0517491400242 -0.696106612682
14.8261518478 0.0460496023297 -0.695255279541
14.8261518478 0.0460496023297 -0.695255279541
14.69348526 0.0403269231319 -0.675643801689
14.69348526 0.0403269231319 -0.675643801689
14.5858612061 0.0350579023361 -0.645319700241
14.5858612061 0.0350579023361 -0.645319700241
14.5018062592 0.030607284978 -0.612330913544
14.5018062592 0.030607284978 -0.612330913544
14.4367809296 0.0271516479552 -0.58292299509
14.4367809296 0.0271516479552 -0.58292299509
14.3865537643 0.0247344914824 -0.561139047146
14.3865537643 0.0247344914824 -0.561139047146
14.3302516937 0.0229515340179 -0.548085510731
14.3302516937 0.0229515340179 -0.548085510731
13.9475421906 -0.0212716627866 0.110579356551
13.9475421906 -0.0212716627866 0.110579356551
13.9746780396 -0.043930657208 0.230405390263
13.9746780396 -0.043930657208 0.230405390263
14.0250225067 -0.0663821622729 0.347738534212
14.0250225067 -0.0663821622729 0.347738534212
14.0980024338 -0.0890940800309 0.462165236473
14.0980024338 -0.0890940800309 0.462165236473
14.1945123672 -0.112205028534 0.571967542171
14.1945123672 -0.112205028534 0.571967542171
14.3163366318 -0.135048776865 0.674737751484
14.3163366318 -0.135048776865 0.674737751484
14.4650239944 -0.156341552734 0.767191290855
14.4650239944 -0.156341552734 0.767191290855
14.6407833099 -0.173530250788 0.844450891018
14.6407833099 -0.173530250788 0.844450891018
14.8405132294 -0.182399794459 0.900923848152
14.8405132294 -0.182399794459 0.900923848152
15.0603818893 -0.181956425309 0.929660320282
15.0603818893 -0.181956425309 0.929660320282
15.2933197021 -0.16943281889 0.922078669071
15.2933197021 -0.16943281889 0.922078669071
15.5314741135 -0.144380450249 0.868002712727
15.5314741135 -0.144380450249 0.868002712727
15.7546138763 -0.103801198304 0.761007010937
15.7546138763 -0.103801198304 0.761007010937
15.9366722107 -0.0500605069101 0.599806845188
15.9366722107 -0.0500605069101 0.599806845188
16.0497970581 0.011935361661 0.394850164652
16.0497970581 0.011935361661 0.394850164652
16.0789394379 0.0735975280404 0.164089560509
16.0789394379 0.0735975280404 0.164089560509
16.0239315033 0.123044073582 -0.0641997158527
16.0239315033 0.123044073582 -0.0641997158527
15.9025259018 0.155698508024 -0.266294032335
15.9025259018 0.155698508024 -0.266294032335
15.7356777191 0.171357452869 -0.434803515673
15.7356777191 0.171357452869 -0.434803515673
15.545460701 0.175079554319 -0.563669681549
15.545460701 0.175079554319 -0.563669681549
15.3494253159 0.17101739347 -0.651092469692
15.3494253159 0.17101739347 -0.651092469692
15.159948349 0.160829290748 -0.702464878559
15.159948349 0.160829290748 -0.702464878559
14.9835147858 0.146867543459 -0.724279880524
14.9835147858 0.146867543459 -0.724279880524
14.8270359039 0.131422504783 -0.720613539219
14.8270359039 0.131422504783 -0.720613539219
14.6946487427 0.116086028516 -0.69797116518
14.6946487427 0.116086028516 -0.69797116518
14.5877904892 0.101701825857 -0.664673388004
14.5877904892 0.101701825857 -0.664673388004
14.5046491623 0.0892220437527 -0.628987133503
14.5046491623 0.0892220437527 -0.628987133503
14.4408254623 0.0793919339776 -0.597497224808
14.4408254623 0.0793919339776 -0.597497224808
14.391658783 0.0723503753543 -0.574230611324
14.391658783 0.0723503753543 -0.574230611324
14.3374300003 0.0676407292485 -0.56055366993
14.3374300003 0.0676407292485 -0.56055366993
13.947508812 -0.0335803776979 0.116513177752
13.947508812 -0.0335803776979 0.116513177752
13.9745140076 -0.0702840611339 0.243026211858
13.9745140076 -0.0702840611339 0.243026211858
14.0244750977 -0.106887474656 0.367274522781
14.0244750977 -0.106887474656 0.367274522781
14.096616745 -0.143924474716 0.489016652107
14.096616745 -0.143924474716 0.489016652107
14.1919984818 -0.181535720825 0.606980383396
14.1919984818 -0.181535720825 0.606980383396
14.3132381439 -0.219090491533 0.719013512135
14.3132381439 -0.219090491533 0.719013512135
14.4630908966 -0.254412919283 0.821634948254
14.4630908966 -0.254412919283 0.821634948254
14.6426696777 -0.28210106492 0.908658146858
14.6426696777 -0.28210106492 0.908658146858
14.84349823 -0.298405110836 0.976065218449
14.84349823 -0.298405110836 0.976065218449
15.0727481842 -0.296924769878 1.01080846786
15.0727481842 -0.296924769878 1.01080846786
15.3206510544 -0.276588767767 1.00140571594
15.3206510544 -0.276588767767 1.00140571594
15.5787382126 -0.226923018694 0.940457463264
15.5787382126 -0.226923018694 0.940457463264
15.8208198547 -0.156042858958 0.818505823612
15.8208198547 -0.156042858958 0.818505823612
16.0182113647 -0.0668422728777 0.633444726467
16.0182113647 -0.0668422728777 0.633444726467
16.1350154877 0.0373875871301 0.396733641624
16.1350154877 0.0373875871301 0.396733641624
16.1541976929 0.139352157712 0.134682685137
16.1541976929 0.139352157712 0.134682685137
16.0803947449 0.218727886677 -0.114844702184
16.0803947449 0.218727886677 -0.114844702184
15.9386386871 0.268552154303 -0.32906344533
15.9386386871 0.268552154303 -0.32906344533
15.7548265457 0.290372371674 -0.502049744129
15.7548265457 0.290372371674 -0.502049744129
15.5521249771 0.290435314178 -0.631020486355
15.5521249771 0.290435314178 -0.631020486355
15.3481988907 0.277568489313 -0.715345442295
15.3481988907 0.277568489313 -0.715345442295
15.1537456512 0.257389038801 -0.761476039886
15.1537456512 0.257389038801 -0.761476039886
14.975859642 0.233520910144 -0.776210963726
14.975859642 0.233520910144 -0.776210963726
14.8196573257 0.20835749805 -0.765270352364
14.8196573257 0.20835749805 -0.765270352364
14.689324379 0.184036299586 -0.735795795918
14.689324379 0.184036299586 -0.735795795918
14.58543396 0.161575779319 -0.696584761143
14.58543396 0.161575779319 -0.696584761143
14.505437851 0.142222970724 -0.656009078026
14.505437851 0.142222970724 -0.656009078026
14.4448375702 0.126772999763 -0.620747625828
14.4448375702 0.126772999763 -0.620747625828
14.398850441 0.115565821528 -0.594947218895
14.398850441 0.115565821528 -0.594947218895
14.3487672806 0.108537517488 -0.579958558083
14.3487672806 0.108537517488 -0.579958558083
13.9473400116 -0.0443164482713 0.12495585531
13.9473400116 -0.0443164482713 0.12495585531
13.974199295 -0.0933796539903 0.26141050458
13.974199295 -0.0933796539903 0.26141050458
14.023598671 -0.142491832376 0.395698428154
14.023598671 -0.142491832376 0.395698428154
14.0944185257 -0.192171916366 0.527932941914
14.0944185257 -0.192171916366 0.527932941914
14.1880712509 -0.242686137557 0.657713770866
14.1880712509 -0.242686137557 0.657713770866
14.3082962036 -0.29335680604 0.783200979233
14.3082962036 -0.29335680604 0.783200979233
14.4590454102 -0.339948385954 0.900430262089
14.4590454102 -0.339948385954 0.900430262089
14.6380596161 -0.37418410182 1.0031465292
14.6380596161 -0.37418410182 1.0031465292
14.8441333771 -0.404299229383 1.08529341221
14.8441333771 -0.404299229383 1.08529341221
15.0853261948 -0.41126486659 1.14223313332
15.0853261948 -0.41126486659 1.14223313332
15.3620290756 -0.387234658003 1.13690149784
15.3620290756 -0.387234658003 1.13690149784
15.646695137 -0.340222537518 1.08898139
15.646695137 -0.340222537518 1.08898139
15.9199333191 -0.235745340586 0.927380621433
15.9199333191 -0.235745340586 0.927380621433
16.1234645844 -0.0959322229028 0.702388286591
16.1234645844 -0.0959322229028 0.702388286591
16.2438831329 0.0566622503102 0.414395064116
16.2438831329 0.0566622503102 0.414395064116
16.2472705841 0.199009329081 0.100862152874
16.2472705841 0.199009329081 0.100862152874
16.1445426941 0.30652359128 -0.185961216688
16.1445426941 0.30652359128 -0.185961216688
15.9713878632 0.369410276413 -0.42065179348
15.9713878632 0.369410276413 -0.42065179348
15.763833046 0.393615156412 -0.599788546562
15.763833046 0.393615156412 -0.599788546562
15.5452318192 0.388132125139 -0.725593626499
15.5452318192 0.388132125139 -0.725593626499
15.3316164017 0.365002423525 -0.802446305752
15.3316164017 0.365002423525 -0.802446305752
15.1321172714 0.334668576717 -0.840016126633
15.1321172714 0.334668576717 -0.840016126633
14.9538736343 0.301044583321 -0.845082938671
14.9538736343 0.301044583321 -0.845082938671
14.8004932404 0.266997992992 -0.824571430683
14.8004932404 0.266997992992 -0.824571430683
14.6745271683 0.235922977328 -0.786545336246
14.6745271683 0.235922977328 -0.786545336246
14.5757112503 0.208259880543 -0.739741444588
14.5757112503 0.208259880543 -0.739741444588
14.5010347366 0.184433892369 -0.692881941795
14.5010347366 0.184433892369 -0.692881941795
14.4457263947 0.165173113346 -0.652643084526
14.4457263947 0.165173113346 -0.652643084526
14.4048500061 0.151088610291 -0.623350858688
14.4048500061 0.151088610291 -0.623350858688
14.3610486984 0.142280429602 -0.606482863426
14.3610486984 0.142280429602 -0.606482863426
13.9471921921 -0.0529432035983 0.135739505291
13.9471921921 -0.0529432035983 0.135739505291
13.973698616 -0.111897140741 0.284754931927
13.973698616 -0.111897140741 0.284754931927
14.0220603943 -0.171015009284 0.431757330894
14.0220603943 -0.171015009284 0.431757330894
14.0910396576 -0.230923116207 0.577672421932
14.0910396576 -0.230923116207 0.577672421932
14.1825017929 -0.291901648045 0.722995996475
14.1825017929 -0.291901648045 0.722995996475
14.300825119 -0.352284282446 0.86537861824
14.300825119 -0.352284282446 0.86537861824
14.4499797821 -0.41013944149 1.00550246239
14.4499797821 -0.41013944149 1.00550246239
14.612118721 -0.473499894142 1.1511054039
14.612118721 -0.473499894142 1.1511054039
14.8432970047 -0.497895479202 1.2219132185
14.8432970047 -0.497895479202 1.2219132185
15.0887012482 -0.551781117916 1.32960855961
15.0887012482 -0.551781117916 1.32960855961
15.4002151489 -0.517880618572 1.33005833626
15.4002151489 -0.517880618572 1.33005833626
15.7023496628 -0.45428493619 1.26730084419
15.7023496628 -0.45428493619 1.26730084419
16.0339603424 -0.274314254522 1.02957057953
16.0339603424 -0.274314254522 1.02957057953
16.2441673279 -0.0967052131891 0.763237655163
16.2441673279 -0.0967052131891 0.763237655163
16.3643226624 0.0988625586033 0.412536233664
16.3643226624 0.0988625586033 0.412536233664
16.3447570801 0.275632202625 0.0370063781738
16.3447570801 0.275632202625 0.0370063781738
16.2040863037 0.402731835842 -0.296887069941
16.2040863037 0.402731835842 -0.296887069941
15.9919080734 0.469375640154 -0.55414223671
15.9919080734 0.469375640154 -0.55414223671
15.7548418045 0.485178291798 -0.737111985683
15.7548418045 0.485178291798 -0.737111985683
15.5188102722 0.46817690134 -0.853998422623
15.5188102722 0.46817690134 -0.853998422623
15.2971687317 0.433046042919 -0.917516589165
15.2971687317 0.433046042919 -0.917516589165
15.0963277817 0.391665995121 -0.941351294518
15.0963277817 0.391665995121 -0.941351294518
14.9203891754 0.34915587306 -0.932460010052
14.9203891754 0.34915587306 -0.932460010052
14.7719783783 0.307976812124 -0.898363113403
14.7719783783 0.307976812124 -0.898363113403
14.6523780823 0.271585285664 -0.849298655987
14.6523780823 0.271585285664 -0.849298655987
14.5604515076 0.240577697754 -0.793651223183
14.5604515076 0.240577697754 -0.793651223183
14.4925518036 0.21426974237 -0.739462733269
14.4925518036 0.21426974237 -0.739462733269
14.4439983368 0.193016678095 -0.693377256393
14.4439983368 0.193016678095 -0.693377256393
14.409488678 0.177386969328 -0.65983736515
14.409488678 0.177386969328 -0.65983736515
14.3733558655 0.167536780238 -0.640566051006
14.3733558655 0.167536780238 -0.640566051006
13.9471693039 -0.0590603612363 0.148396119475
13.9471693039 -0.0590603612363 0.148396119475
13.9729995728 -0.124914854765 0.311990112066
13.9729995728 -0.124914854765 0.311990112066
14.0199174881 -0.191018164158 0.474095523357
14.0199174881 -0.191018164158 0.474095523357
14.0868415833 -0.257979899645 0.636668026447
14.0868415833 -0.257979899645 0.636668026447
14.1757802963 -0.325327575207 0.800373792648
14.1757802963 -0.325327575207 0.800373792648
14.2908906937 -0.39061331749 0.962803721428
14.2908906937 -0.39061331749 0.962803721428
14.4367609024 -0.459600090981 1.13117647171
14.4367609024 -0.459600090981 1.13117647171
14.594326973 -0.550447702408 1.30037581921
14.594326973 -0.550447702408 1.30037581921
14.8512802124 -0.570713400841 1.41035377979
14.8512802124 -0.570713400841 1.41035377979
15.1193037033 -0.620981097221 1.53751707077
15.1193037033 -0.620981097221 1.53751707077
15.4493942261 -0.557205796242 1.56906163692
15.4493942261 -0.557205796242 1.56906163692
15.8139448166 -0.416899353266 1.40367877483
15.8139448166 -0.416899353266 1.40367877483
16.1680679321 -0.223454862833 1.12619543076
16.1680679321 -0.223454862833 1.12619543076
16.4067249298 -0.0373471155763 0.792247772217
16.4067249298 -0.0373471155763 0.792247772217
16.5228176117 0.182478457689 0.358312875032
16.5228176117 0.182478457689 0.358312875032
16.4679279327 0.37691950798 -0.0955568104982
16.4679279327 0.37691950798 -0.0955568104982
16.2738380432 0.504607617855 -0.477782428265
16.2738380432 0.504607617855 -0.477782428265
16.0099544525 0.560694038868 -0.746476888657
16.0099544525 0.560694038868 -0.746476888657
15.7376031876 0.560652732849 -0.913174033165
15.7376031876 0.560652732849 -0.913174033165
15.4839754105 0.526127994061 -1.0085234642
15.4839754105 0.526127994061 -1.0085234642
15.2548751831 0.474698960781 -1.05168521404
15.2548751831 0.474698960781 -1.05168521404
15.054693222 0.420763611794 -1.0564084053
15.054693222 0.420763611794 -1.0564084053
14.8830900192 0.37049689889 -1.03012025356
14.8830900192 0.37049689889 -1.03012025356
14.7415513992 0.325578957796 -0.981355309486
14.7415513992 0.325578957796 -0.981355309486
14.6293230057 0.287316441536 -0.920408308506
14.6293230057 0.287316441536 -0.920408308506
14.5449676514 0.255590885878 -0.855746746063
14.5449676514 0.255590885878 -0.855746746063
14.4842233658 0.229082211852 -0.793890297413
14.4842233658 0.229082211852 -0.793890297413
14.4426994324 0.207839295268 -0.741637706757
14.4426994324 0.207839295268 -0.741637706757
14.4148292542 0.192162469029 -0.7036652565
14.4148292542 0.192162469029 -0.7036652565
14.3866758347 0.182152301073 -0.681843400002
14.3866758347 0.182152301073 -0.681843400002
13.9472894669 -0.0623575225472 0.162594988942
13.9472894669 -0.0623575225472 0.162594988942
13.9723272324 -0.131844311953 0.342433869839
13.9723272324 -0.131844311953 0.342433869839
14.0178804398 -0.201504662633 0.521686315536
14.0178804398 -0.201504662633 0.521686315536
14.0830926895 -0.271671950817 0.703036248684
14.0830926895 -0.271671950817 0.703036248684
14.1707849503 -0.341233313084 0.887698829174
14.1707849503 -0.341233313084 0.887698829174
14.2860927582 -0.407403677702 1.07344734669
14.2860927582 -0.407403677702 1.07344734669
14.4382400513 -0.471472293139 1.26548433304
14.4382400513 -0.471472293139 1.26548433304
14.6325922012 -0.537186563015 1.43686270714
14.6325922012 -0.537186563015 1.43686270714
14.8848600388 -0.57649230957 1.60919046402
14.8848600388 -0.57649230957 1.60919046402
15.2306594849 -0.56559419632 1.70909106731
15.2306594849 -0.56559419632 1.70909106731
15.5312356949 -0.527440190315 1.78141951561
15.5312356949 -0.527440190315 1.78141951561
15.9343328476 -0.382312715054 1.55120396614
15.9343328476 -0.382312715054 1.55120396614
16.2923793793 -0.216112956405 1.29387271404
16.2923793793 -0.216112956405 1.29387271404
16.5867195129 0.0288149099797 0.869840562344
16.5867195129 0.0288149099797 0.869840562344
16.7078151703 0.279729604721 0.305898845196
16.7078151703 0.279729604721 0.305898845196
16.6069698334 0.47701266408 -0.256586104631
16.6069698334 0.47701266408 -0.256586104631
16.3479824066 0.589138329029 -0.691369950771
16.3479824066 0.589138329029 -0.691369950771
16.0256843567 0.629416763783 -0.964094460011
16.0256843567 0.629416763783 -0.964094460011
15.7143325806 0.614580094814 -1.11260533333
15.7143325806 0.614580094814 -1.11260533333
15.4396934509 0.561893224716 -1.17665290833
15.4396934509 0.561893224716 -1.17665290833
15.2056016922 0.492726057768 -1.19125103951
15.2056016922 0.492726057768 -1.19125103951
15.0104894638 0.426476240158 -1.1713309288
15.0104894638 0.426476240158 -1.1713309288
14.8475122452 0.368818283081 -1.12539553642
14.8475122452 0.368818283081 -1.12539553642
14.715262413 0.32066872716 -1.06263887882
14.715262413 0.32066872716 -1.06263887882
14.6108598709 0.282330453396 -0.991305291653
14.6108598709 0.282330453396 -0.991305291653
14.533495903 0.251952141523 -0.918874204159
14.533495903 0.251952141523 -0.918874204159
14.4793748856 0.22753071785 -0.850783288479
14.4793748856 0.22753071785 -0.850783288479
14.443985939 0.207984894514 -0.79336565733
14.443985939 0.207984894514 -0.79336565733
14.4221343994 0.193371966481 -0.751817286015
14.4221343994 0.193371966481 -0.751817286015
14.4014625549 0.183824107051 -0.727876067162
14.4014625549 0.183824107051 -0.727876067162
13.9475049973 -0.0625512748957 0.177853882313
13.9475049973 -0.0625512748957 0.177853882313
13.9718999863 -0.132145375013 0.374972015619
13.9718999863 -0.132145375013 0.374972015619
14.0164060593 -0.201627850533 0.572561740875
14.0164060593 -0.201627850533 0.572561740875
14.0803537369 -0.270827800035 0.77381926775
14.0803537369 -0.270827800035 0.77381926775
14.1674623489 -0.338490664959 0.980606913567
14.1674623489 -0.338490664959 0.980606913567
14.2859992981 -0.403520405293 1.19179809093
14.2859992981 -0.403520405293 1.19179809093
14.4470930099 -0.461418777704 1.40519452095
14.4470930099 -0.461418777704 1.40519452095
14.6665391922 -0.51006257534 1.60641050339
14.6665391922 -0.51006257534 1.60641050339
14.9552545547 -0.535987257957 1.8011790514
14.9552545547 -0.535987257957 1.8011790514
15.3338680267 -0.504272997379 1.89166247845
15.3338680267 -0.504272997379 1.89166247845
15.6156320572 -0.482490718365 1.97746348381
15.6156320572 -0.482490718365 1.97746348381
16.0479431152 -0.332869142294 1.7599594593
16.0479431152 -0.332869142294 1.7599594593
16.4559993744 -0.179656654596 1.45677363873
16.4559993744 -0.179656654596 1.45677363873
16.8200759888 0.0789473131299 0.884724378586