# vtk DataFile Version 2.0
sampleSurface
ASCII
DATASET POLYDATA
POINTS 961 double
581321 4785370 1100
581353.375 4785370 1100
581385.625 4785370 1100
581417.75 4785370 1100
581449.875 4785370 1100
581482.125 4785370 1100
581514.4375 4785370 1100
581546.75 4785370 1100
581579 4785370 1100
581611.1875 4785370 1100
581643.4375 4785370 1100
581675.6875 4785370 1100
581707.8125 4785370 1100
581740.0625 4785370 1100
581772.5 4785370 1100
581805 4785370 1100
581837.6875 4785370 1100
581870.375 4785370 1100
581902.875 4785370 1100
581935.4375 4785370 1100
581967.75 4785370 1100
581999.875 4785370 1100
582032.125 4785370 1100
582064.5625 4785370 1100
582096.875 4785370 1100
582129 4785370 1100
582161.1875 4785370 1100
582193.4375 4785370 1100
582225.6875 4785370 1100
582258 4785370 1100
582290 4785370 1100
581321 4785399 1100
581353.375 4785399 1100
581385.625 4785398.5 1100
581417.6875 4785398.5 1100
581449.875 4785398.5 1100
581482.125 4785398.5 1100
581514.375 4785398.5 1100
581546.6875 4785398.5 1100
581578.875 4785398 1100
581611.0625 4785398 1100
581643.25 4785397.5 1100
581675.25 4785397 1100
581707.375 4785396.5 1100
581739.75 4785396 1100
581772.3125 4785395.5 1100
581804.9375 4785395 1100
581837.875 4785395 1100
581870.5625 4785395.5 1100
581903 4785396.5 1100
581935.5625 4785396.5 1100
581968.0625 4785396.5 1100
582000.3125 4785397 1100
582032.4375 4785397.5 1100
582064.8125 4785398 1100
582097.0625 4785398.5 1100
582129.0625 4785398.5 1100
582161.1875 4785398.5 1100
582193.4375 4785398.5 1100
582225.75 4785398.5 1100
582258 4785398.5 1100
582290 4785398.5 1100
581321 4785428 1100
581353.25 4785428 1100
581385.5 4785427.5 1100
581417.625 4785427.5 1100
581449.875 4785427.5 1100
581482.0625 4785427.5 1100
581514.3125 4785427.5 1100
581546.5 4785427.5 1100
581578.6875 4785427 1100
581610.6875 4785426.5 1100
581642.625 4785425.5 1100
581674.5 4785424.5 1100
581706.875 4785424.5 1100
581739.625 4785424 1100
581772.5 4785424 1100
581805.125 4785424 1100
581838.0625 4785424 1100
581870.75 4785424.5 1100
581903.1875 4785425 1100
581935.6875 4785425.5 1100
581968.25 4785425.5 1100
582000.625 4785426 1100
582032.875 4785426.5 1100
582065.1875 4785427 1100
582097.375 4785427 1100
582129.3125 4785427.5 1100
582161.25 4785427.5 1100
582193.4375 4785427.5 1100
582225.6875 4785427.5 1100
582258 4785427.5 1100
582290 4785427.5 1100
581321 4785457 1100
581353.125 4785457 1100
581385.375 4785456.5 1100
581417.5625 4785456.5 1100
581449.8125 4785456.5 1100
581482 4785456.5 1100
581514.125 4785456.5 1100
581546.25 4785456 1100
581578.1875 4785455.5 1100
581610.3125 4785455 1100
581641.875 4785454 1100
581673.9375 4785453 1100
581706.6875 4785453 1100
581739.3125 4785453 1100
581772.4375 4785453 1100
581805.25 4785453 1100
581838.375 4785453 1100
581871 4785453.5 1100
581903.5625 4785454 1100
581936 4785454.5 1100
581968.4375 4785454.5 1100
582000.8125 4785454.5 1100
582033.25 4785455 1100
582065.625 4785455.5 1100
582097.75 4785456 1100
582129.5625 4785456 1100
582161.375 4785456.5 1100
582193.5 4785456.5 1100
582225.6875 4785456.5 1100
582257.9375 4785456.5 1100
582290 4785456.5 1100
581321 4785486 1100
581353 4785486 1100
581385.25 4785485.5 1100
581417.5 4785485.5 1100
581449.75 4785485.5 1100
581481.875 4785485.5 1100
581513.875 4785485 1100
581545.8125 4785484.5 1100
581577.75 4785484 1100
581609.375 4785483.5 1100
581643.875 4785486 1100
581676.1875 4785486 1100
581708.625 4785486 1100
581739.4375 4785482 1100
581772.25 4785482 1100
581805.25 4785482 1100
581838.4375 4785482 1100
581871.3125 4785482.5 1100
581903.875 4785482.5 1100
581936.3125 4785483 1100
581968.6875 4785483 1100
582001.125 4785483 1100
582033.75 4785483.5 1100
582066.0625 4785484.5 1100
582098.125 4785484.5 1100
582129.9375 4785485 1100
582161.625 4785485.5 1100
582193.625 4785485.5 1100
582225.6875 4785485.5 1100
582257.9375 4785485.5 1100
582290 4785485.5 1100
581321 4785515 1100
581352.875 4785514.5 1100
581385.1875 4785514.5 1100
581417.4375 4785514.5 1100
581449.625 4785514.5 1100
581481.75 4785514.5 1100
581513.5 4785514 1100
581545.25 4785513.5 1100
581577.4375 4785513 1100
581609.75 4785513 1100
581644 4785515 1100
581676.3125 4785515 1100
581708.625 4785515 1100
581739.375 4785511 1100
581772.0625 4785511 1100
581805.3125 4785511 1100
581838.625 4785511 1100
581871.6875 4785511.5 1100
581904.25 4785512 1100
581936.625 4785512 1100
581968.875 4785512.5 1100
582001.3125 4785512.5 1100
582034.0625 4785513 1100
582066.4375 4785513 1100
582098.375 4785513.5 1100
582130.3125 4785514 1100
582162 4785514.5 1100
582193.8125 4785514.5 1100
582225.75 4785514.5 1100
582257.9375 4785514.5 1100
582290 4785514.5 1100
581321 4785543.5 1100
581352.875 4785543.5 1100
581385.125 4785543.5 1100
581417.3125 4785543.5 1100
581449.5 4785543.5 1100
581481.5 4785543 1100
581512.75 4785542.5 1100
581544.3125 4785542 1100
581576.25 4785541.5 1100
581609.9375 4785542.5 1100
581642.4375 4785542.5 1100
581676.3125 4785544 1100
581706.3125 4785540 1100
581738.9375 4785540 1100
581772.0625 4785540 1100
581805.5625 4785540 1100
581839 4785540.5 1100
581872 4785541 1100
581904.625 4785541.5 1100
581936.9375 4785541.5 1100
581969.0625 4785542 1100
582001.5 4785542.5 1100
582034.125 4785542.5 1100
582066.5625 4785542.5 1100
582098.625 4785543 1100
582130.625 4785543 1100
582162.3125 4785543.5 1100
582193.9375 4785543.5 1100
582225.8125 4785543.5 1100
582258 4785543.5 1100
582290 4785543.5 1100
581321 4785572.5 1100
581352.8125 4785572.5 1100
581385.0625 4785572.5 1100
581417.25 4785572.5 1100
581449.3125 4785572.5 1100
581481.125 4785572 1100
581512.1875 4785571.5 1100
581543.1875 4785571 1100
581575.3125 4785570.5 1100
581608.875 4785571 1100
581641.4375 4785570.5 1100
581676.3125 4785573 1100
581705.625 4785569 1100
581738.8125 4785569 1100
581772.3125 4785569 1100
581806.125 4785569.5 1100
581839.5625 4785570 1100
581872.4375 4785570.5 1100
581905.0625 4785571 1100
581937.375 4785571.5 1100
581969.5 4785572.5 1100
582001.875 4785573 1100
582034.1875 4785573 1100
582066.375 4785573 1100
582098.5 4785572.5 1100
582130.5625 4785572 1100
582162.3125 4785572.5 1100
582193.9375 4785572.5 1100
582225.875 4785572.5 1100
582258.0625 4785572.5 1100
582290 4785573 1100
581321 4785601.5 1100
581352.8125 4785601.5 1100
581385 4785601.5 1100
581417.1875 4785601.5 1100
581449.0625 4785601.5 1100
581480.5625 4785601 1100
581512.0625 4785600.5 1100
581543.0625 4785600 1100
581575.75 4785600 1100
581609.1875 4785600.5 1100
581641.5 4785600 1100
581676.3125 4785602 1100
581707.25 4785600.5 1100
581740.9375 4785602 1100
581772.6875 4785599 1100
581806.8125 4785599.5 1100
581840.1875 4785600 1100
581873 4785601 1100
581905.875 4785601.5 1100
581938.0625 4785602.5 1100
581970.125 4785603 1100
582002.125 4785603.5 1100
582034.1875 4785603.5 1100
582066.125 4785603 1100
582098.125 4785602.5 1100
582130.1875 4785602 1100
582162.1875 4785601.5 1100
582193.875 4785601.5 1100
582225.9375 4785601.5 1100
582258.1875 4785602 1100
582290 4785602 1100
581321 4785630.5 1100
581352.75 4785630.5 1100
581384.9375 4785630.5 1100
581417.0625 4785630.5 1100
581448.8125 4785630.5 1100
581480 4785630 1100
581511.625 4785629.5 1100
581543.0625 4785629.5 1100
581575.6875 4785629.5 1100
581608.8125 4785629.5 1100
581644 4785631 1100
581676.375 4785631 1100
581708.625 4785631 1100
581740.9375 4785631 1100
581773.25 4785629.5 1100
581807.5625 4785630.5 1100
581840.9375 4785631 1100
581873.75 4785631.5 1100
581906.5 4785632 1100
581938.375 4785632.5 1100
581969.3125 4785632.5 1100
582002.0625 4785632.5 1100
582034.0625 4785632.5 1100
582065.875 4785632.5 1100
582097.875 4785632 1100
582129.75 4785631.5 1100
582161.9375 4785631 1100
582193.8125 4785631 1100
582225.9375 4785631 1100
582258.25 4785631 1100
582290 4785631 1100
581321 4785660 1100
581352.6875 4785659.5 1100
581384.875 4785659.5 1100
581416.9375 4785659.5 1100
581448.625 4785659 1100
581479.5 4785658.5 1100
581510.8125 4785658.5 1100
581542.875 4785658.5 1100
581575.625 4785658.5 1100
581611.75 4785660 1100
581644.0625 4785660 1100
581676.375 4785660 1100
581708.625 4785660 1100
581740.9375 4785660 1100
581773.625 4785662 1100
581807.625 4785661.5 1100
581841.125 4785661 1100
581874.1875 4785661 1100
581907 4785661.5 1100
581937.5 4785661 1100
581968.75 4785661 1100
582001.75 4785661.5 1100
582033.625 4785661 1100
582065.375 4785661 1100
582097.625 4785660.5 1100
582129.5625 4785660 1100
582161.875 4785660 1100
582193.8125 4785659.5 1100
582226 4785660 1100
582258.25 4785660 1100
582290 4785660 1100
581321 4785689 1100
581352.5625 4785689 1100
581384.75 4785688.5 1100
581416.75 4785688.5 1100
581448.375 4785688 1100
581479.5 4785687.5 1100
581510.6875 4785687.5 1100
581542.8125 4785687.5 1100
581575.75 4785687.5 1100
581608.1875 4785687.5 1100
581644.0625 4785689 1100
581676.3125 4785689 1100
581708.1875 4785689.5 1100
581740.6875 4785691.5 1100
581773.5625 4785691.5 1100
581807.3125 4785691.5 1100
581840.75 4785691 1100
581873.8125 4785690.5 1100
581904.875 4785689.5 1100
581937.375 4785689.5 1100
581967 4785689 1100
582001.5625 4785689.5 1100
582033.375 4785689.5 1100
582065 4785689 1100
582097.375 4785689 1100
582129.5 4785688.5 1100
582161.8125 4785688.5 1100
582193.9375 4785689 1100
582226.125 4785689 1100
582258.3125 4785689 1100
582290 4785689 1100
581321 4785717.5 1100
581352.5 4785718 1100
581384.625 4785717.5 1100
581416.5 4785717.5 1100
581448 4785717 1100
581479.3125 4785716.5 1100
581510.75 4785716.5 1100
581542.9375 4785716.5 1100
581579.25 4785718 1100
581608.1875 4785716.5 1100
581640.9375 4785717 1100
581675 4785718 1100
581709.125 4785719 1100
581741.3125 4785720 1100
581773.625 4785720.5 1100
581806.9375 4785720.5 1100
581840.125 4785720 1100
581872.5625 4785718.5 1100
581906.375 4785716.5 1100
581938.375 4785716.5 1100
581970.1875 4785717 1100
582001.8125 4785717 1100
582033.5 4785717 1100
582064.8125 4785717 1100
582097.1875 4785717 1100
582129.625 4785717 1100
582162 4785717.5 1100
582194.25 4785718 1100
582226.25 4785718 1100
[...]
CELL_DATA 1800
FIELD attributes 1
U 3 1800 float
13.9479465485 -0.00671648932621 0.138324216008
13.9479465485 -0.00671648932621 0.138324216008
13.9742069244 -0.0135881956667 0.292391180992
13.9742069244 -0.0135881956667 0.292391180992
14.0245008469 -0.0201930310577 0.449317872524
14.0245008469 -0.0201930310577 0.449317872524
14.0999803543 -0.0266678370535 0.610037863255
14.0999803543 -0.0266678370535 0.610037863255
14.2041931152 -0.0329732000828 0.772394776344
14.2041931152 -0.0329732000828 0.772394776344
14.3419008255 -0.0386502593756 0.931417286396
14.3419008255 -0.0386502593756 0.931417286396
14.5147428513 -0.0431240051985 1.07730281353
14.5147428513 -0.0431240051985 1.07730281353
14.7188997269 -0.0460302010179 1.19857215881
14.7188997269 -0.0460302010179 1.19857215881
14.9438667297 -0.0470417439938 1.28772175312
14.9438667297 -0.0470417439938 1.28772175312
15.1791677475 -0.0457462072372 1.3415517807
15.1791677475 -0.0457462072372 1.3415517807
15.4131298065 -0.0404382869601 1.35904037952
15.4131298065 -0.0404382869601 1.35904037952
15.6356573105 -0.0312268640846 1.3397449255
15.6356573105 -0.0312268640846 1.3397449255
15.8341503143 -0.0189830195159 1.2814450264
15.8341503143 -0.0189830195159 1.2814450264
15.9943466187 -0.00417373329401 1.18450117111
15.9943466187 -0.00417373329401 1.18450117111
16.0975875854 0.0119196902961 1.0586386919
16.0975875854 0.0119196902961 1.0586386919
16.1398983002 0.0275108199567 0.917025208473
16.1398983002 0.0275108199567 0.917025208473
16.1230373383 0.0400433279574 0.774672567844
16.1230373383 0.0400433279574 0.774672567844
16.0631561279 0.0485354401171 0.643446922302
16.0631561279 0.0485354401171 0.643446922302
15.9728870392 0.0515280216932 0.526461243629
15.9728870392 0.0515280216932 0.526461243629
15.8641338348 0.0528780817986 0.423601537943
15.8641338348 0.0528780817986 0.423601537943
15.7435760498 0.0534777827561 0.336073249578
15.7435760498 0.0534777827561 0.336073249578
15.6160459518 0.0523769930005 0.261258751154
15.6160459518 0.0523769930005 0.261258751154
15.4809875488 0.0496155247092 0.199373662472
15.4809875488 0.0496155247092 0.199373662472
15.3438844681 0.0459852106869 0.153051033616
15.3438844681 0.0459852106869 0.153051033616
15.2077674866 0.0417722947896 0.118440270424
15.2077674866 0.0417722947896 0.118440270424
15.0721416473 0.0375025495887 0.0912774130702
15.0721416473 0.0375025495887 0.0912774130702
14.9362716675 0.0338217131793 0.0695203915238
14.9362716675 0.0338217131793 0.0695203915238
14.8003435135 0.0309963449836 0.0513995625079
14.8003435135 0.0309963449836 0.0513995625079
14.6678285599 0.0289286673069 0.0335853472352
14.6678285599 0.0289286673069 0.0335853472352
14.4985837936 0.0270376577973 0.0100373253226
14.4985837936 0.0270376577973 0.0100373253226
13.947435379 -0.0192538946867 0.140813454986
13.947435379 -0.0192538946867 0.140813454986
13.9735736847 -0.0396198742092 0.297292143106
13.9735736847 -0.0396198742092 0.297292143106
14.0236673355 -0.0593884252012 0.456021726131
14.0236673355 -0.0593884252012 0.456021726131
14.0987882614 -0.0787311568856 0.617909252644
14.0987882614 -0.0787311568856 0.617909252644
14.2024297714 -0.0974897295237 0.781085014343
14.2024297714 -0.0974897295237 0.781085014343
14.3392858505 -0.114714004099 0.940718173981
14.3392858505 -0.114714004099 0.940718173981
14.5118074417 -0.129135891795 1.08782637119
14.5118074417 -0.129135891795 1.08782637119
14.7162399292 -0.139010280371 1.21083140373
14.7162399292 -0.139010280371 1.21083140373
14.941824913 -0.141227349639 1.30241763592
14.941824913 -0.141227349639 1.30241763592
15.1779966354 -0.13649225235 1.35922777653
15.1779966354 -0.13649225235 1.35922777653
15.415060997 -0.121781021357 1.37829089165
15.415060997 -0.121781021357 1.37829089165
15.6455335617 -0.0963996276259 1.35641992092
15.6455335617 -0.0963996276259 1.35641992092
15.8543605804 -0.0610173121095 1.29180777073
15.8543605804 -0.0610173121095 1.29180777073
16.0225639343 -0.014329127036 1.18597435951
16.0225639343 -0.014329127036 1.18597435951
16.1290340424 0.0383482612669 1.05034959316
16.1290340424 0.0383482612669 1.05034959316
16.167093277 0.0896279364824 0.899520576
16.167093277 0.0896279364824 0.899520576
16.1447792053 0.128375500441 0.752848386765
16.1447792053 0.128375500441 0.752848386765
16.0797863007 0.151686400175 0.621497511864
16.0797863007 0.151686400175 0.621497511864
15.9855012894 0.161063373089 0.503039479256
15.9855012894 0.161063373089 0.503039479256
15.872918129 0.163472890854 0.399237334728
15.872918129 0.163472890854 0.399237334728
15.7504014969 0.161552608013 0.313003629446
15.7504014969 0.161552608013 0.313003629446
15.6214675903 0.155981704593 0.241140365601
15.6214675903 0.155981704593 0.241140365601
15.4861116409 0.147543609142 0.18246422708
15.4861116409 0.147543609142 0.18246422708
15.3489952087 0.137543141842 0.139204636216
15.3489952087 0.137543141842 0.139204636216
15.2132568359 0.126773551106 0.10831425339
15.2132568359 0.126773551106 0.10831425339
15.0786132812 0.11571675539 0.0851000249386
15.0786132812 0.11571675539 0.0851000249386
14.9434280396 0.105699308217 0.0668170824647
14.9434280396 0.105699308217 0.0668170824647
14.8080053329 0.0976924523711 0.0516358464956
14.8080053329 0.0976924523711 0.0516358464956
14.6758451462 0.0915320664644 0.0365235731006
14.6758451462 0.0915320664644 0.0365235731006
14.5077724457 0.0867778882384 0.015704812482
14.5077724457 0.0867778882384 0.015704812482
13.9474935532 -0.0305094886571 0.146126002073
13.9474935532 -0.0305094886571 0.146126002073
13.9739246368 -0.0636769086123 0.308478087187
13.9739246368 -0.0636769086123 0.308478087187
14.0244312286 -0.0961950197816 0.472999632359
14.0244312286 -0.0961950197816 0.472999632359
14.0998935699 -0.128167882562 0.640485703945
14.0998935699 -0.128167882562 0.640485703945
14.2039403915 -0.159315273166 0.809264957905
14.2039403915 -0.159315273166 0.809264957905
14.3418989182 -0.188572317362 0.974549114704
14.3418989182 -0.188572317362 0.974549114704
14.5167913437 -0.21357151866 1.12710618973
14.5167913437 -0.21357151866 1.12710618973
14.7250900269 -0.230026751757 1.2548148632
14.7250900269 -0.230026751757 1.2548148632
14.9504756927 -0.235029533505 1.35280954838
14.9504756927 -0.235029533505 1.35280954838
15.1938314438 -0.225845366716 1.41386377811
15.1938314438 -0.225845366716 1.41386377811
15.444188118 -0.201597318053 1.42940402031
15.444188118 -0.201597318053 1.42940402031
15.6897211075 -0.148972228169 1.39927423
15.6897211075 -0.148972228169 1.39927423
15.9151029587 -0.0871064290404 1.32317507267
15.9151029587 -0.0871064290404 1.32317507267
16.0984191895 -0.00341848656535 1.20050954819
16.0984191895 -0.00341848656535 1.20050954819
16.2083797455 0.0905748680234 1.04232048988
16.2083797455 0.0905748680234 1.04232048988
16.2371463776 0.179353415966 0.869621813297
16.2371463776 0.179353415966 0.869621813297
16.1986198425 0.244888827205 0.710815012455
16.1986198425 0.244888827205 0.710815012455
16.1172161102 0.282074272633 0.575683116913
16.1172161102 0.282074272633 0.575683116913
16.0131797791 0.295217782259 0.45958006382
16.0131797791 0.295217782259 0.45958006382
15.8943634033 0.294142723083 0.358175843954
15.8943634033 0.294142723083 0.358175843954
15.7687711716 0.286341100931 0.273885518312
15.7687711716 0.286341100931 0.273885518312
15.636932373 0.274307906628 0.204405769706
15.636932373 0.274307906628 0.204405769706
15.501698494 0.258188188076 0.150305822492
15.501698494 0.258188188076 0.150305822492
15.3653745651 0.24039721489 0.111843056977
15.3653745651 0.24039721489 0.111843056977
15.2318639755 0.222154825926 0.0860860571265
15.2318639755 0.222154825926 0.0860860571265
15.0996084213 0.203877478838 0.0677079409361
15.0996084213 0.203877478838 0.0677079409361
14.9663076401 0.187283203006 0.0533604733646
14.9663076401 0.187283203006 0.0533604733646
14.8316659927 0.173425242305 0.04117911309
14.8316659927 0.173425242305 0.04117911309
14.6995754242 0.162428662181 0.0285362489522
14.6995754242 0.162428662181 0.0285362489522
14.5319786072 0.154667496681 0.0098329577595
14.5319786072 0.154667496681 0.0098329577595
13.9474401474 -0.0405481569469 0.153854042292
13.9474401474 -0.0405481569469 0.153854042292
13.9742631912 -0.0852968618274 0.325394660234
13.9742631912 -0.0852968618274 0.325394660234
14.0252380371 -0.129491522908 0.498934179544
14.0252380371 -0.129491522908 0.498934179544
14.1009283066 -0.17317737639 0.675355494022
14.1009283066 -0.17317737639 0.675355494022
14.2053251266 -0.216124296188 0.85359275341
14.2053251266 -0.216124296188 0.85359275341
14.3447618484 -0.257039487362 1.02882194519
14.3447618484 -0.257039487362 1.02882194519
14.522436142 -0.291267871857 1.19097793102
14.522436142 -0.291267871857 1.19097793102
14.7309103012 -0.311174541712 1.32907950878
14.7309103012 -0.311174541712 1.32907950878
14.959856987 -0.326917380095 1.43596386909
14.959856987 -0.326917380095 1.43596386909
15.2129335403 -0.31902462244 1.51328969002
15.2129335403 -0.31902462244 1.51328969002
15.4879598618 -0.283591121435 1.52962446213
15.4879598618 -0.283591121435 1.52962446213
15.7439670563 -0.223291575909 1.51572346687
15.7439670563 -0.223291575909 1.51572346687
16.0123806 -0.129211589694 1.40161252022
16.0123806 -0.129211589694 1.40161252022
16.2077178955 0.00637795077637 1.24655616283
16.2077178955 0.00637795077637 1.24655616283
16.3204116821 0.151868715882 1.04700946808
16.3204116821 0.151868715882 1.04700946808
16.3338699341 0.282280564308 0.835100352764
16.3338699341 0.282280564308 0.835100352764
16.2693767548 0.375925630331 0.651992678642
16.2693767548 0.375925630331 0.651992678642
16.1630916595 0.423702210188 0.509311318398
16.1630916595 0.423702210188 0.509311318398
16.0448665619 0.438191175461 0.39536434412
16.0448665619 0.438191175461 0.39536434412
15.9207353592 0.43241712451 0.298920303583
15.9207353592 0.43241712451 0.298920303583
15.7922840118 0.416337072849 0.219309851527
15.7922840118 0.416337072849 0.219309851527
15.6593265533 0.395024210215 0.153824225068
15.6593265533 0.395024210215 0.153824225068
15.5268335342 0.369539111853 0.105774603784
15.5268335342 0.369539111853 0.105774603784
15.3955011368 0.342913120985 0.0731964409351
15.3955011368 0.342913120985 0.0731964409351
15.2672405243 0.317832380533 0.0531276799738
15.2672405243 0.317832380533 0.0531276799738
15.14083004 0.293921262026 0.0402564257383
15.14083004 0.293921262026 0.0402564257383
15.0123939514 0.272191882133 0.0304493680596
15.0123939514 0.272191882133 0.0304493680596
14.8811950684 0.253312855959 0.0217545591295
14.8811950684 0.253312855959 0.0217545591295
14.7518482208 0.237861379981 0.0117019359022
14.7518482208 0.237861379981 0.0117019359022
14.5875740051 0.226430118084 -0.0051819854416
14.5875740051 0.226430118084 -0.0051819854416
13.9474077225 -0.0488908886909 0.163922637701
13.9474077225 -0.0488908886909 0.163922637701
13.9744501114 -0.103270418942 0.347238898277
13.9744501114 -0.103270418942 0.347238898277
14.0254774094 -0.157281249762 0.532456576824
14.0254774094 -0.157281249762 0.532456576824
14.1009588242 -0.211094141006 0.721106946468
14.1009588242 -0.211094141006 0.721106946468
14.2053899765 -0.264468491077 0.912742257118
14.2053899765 -0.264468491077 0.912742257118
14.3454408646 -0.314947158098 1.10139811039
14.3454408646 -0.314947158098 1.10139811039
14.523481369 -0.35927888751 1.28205418587
14.523481369 -0.35927888751 1.28205418587
14.7182970047 -0.402292340994 1.46107661724
14.7182970047 -0.402292340994 1.46107661724
14.9749393463 -0.409418195486 1.54188358784
14.9749393463 -0.409418195486 1.54188358784
15.2256097794 -0.444587796926 1.66572523117
15.2256097794 -0.444587796926 1.66572523117
15.5275297165 -0.388309389353 1.67809605598
15.5275297165 -0.388309389353 1.67809605598
15.7878170013 -0.313460558653 1.64668798447
15.7878170013 -0.313460558653 1.64668798447
16.1229362488 -0.143901273608 1.4653468132
16.1229362488 -0.143901273608 1.4653468132
16.3325099945 0.0362239703536 1.26951158047
16.3325099945 0.0362239703536 1.26951158047
16.4443378448 0.231831118464 1.01327991486
16.4443378448 0.231831118464 1.01327991486
16.4356117249 0.40497598052 0.750489354134
16.4356117249 0.40497598052 0.750489354134
16.3356571198 0.526096642017 0.535337746143
16.3356571198 0.526096642017 0.535337746143
16.1975784302 0.584362745285 0.389966070652
16.1975784302 0.584362745285 0.389966070652
16.0617866516 0.594566941261 0.282252371311
16.0617866516 0.594566941261 0.282252371311
15.9347038269 0.579238176346 0.194477409124
15.9347038269 0.579238176346 0.194477409124
15.8078079224 0.55369758606 0.122725382447
15.8078079224 0.55369758606 0.122725382447
15.679479599 0.521829009056 0.0666613504291
15.679479599 0.521829009056 0.0666613504291
15.5544176102 0.486560761929 0.0283733811229
15.5544176102 0.486560761929 0.0283733811229
15.4326610565 0.450546145439 0.00480910157785
15.4326610565 0.450546145439 0.00480910157785
15.3134279251 0.417805880308 -0.00754908053204
15.3134279251 0.417805880308 -0.00754908053204
15.1964387894 0.388306111097 -0.0132632432505
15.1964387894 0.388306111097 -0.0132632432505
15.0780239105 0.361702412367 -0.0165482014418
15.0780239105 0.361702412367 -0.0165482014418
14.9568939209 0.338164806366 -0.0196788925678
14.9568939209 0.338164806366 -0.0196788925678
14.836856842 0.318167626858 -0.0254571698606
14.836856842 0.318167626858 -0.0254571698606
14.6830472946 0.302267819643 -0.0393231697381
14.6830472946 0.302267819643 -0.0393231697381
13.9474868774 -0.0551334992051 0.175909131765
13.9474868774 -0.0551334992051 0.175909131765
13.9743804932 -0.116656705737 0.373047620058
13.9743804932 -0.116656705737 0.373047620058
14.0249671936 -0.178073689342 0.572441577911
14.0249671936 -0.178073689342 0.572441577911
14.0999250412 -0.239600807428 0.776551425457
14.0999250412 -0.239600807428 0.776551425457
14.2039403915 -0.300253868103 0.984668970108
14.2039403915 -0.300253868103 0.984668970108
14.343085289 -0.356771618128 1.19005405903
14.343085289 -0.356771618128 1.19005405903
14.5203027725 -0.413658857346 1.3938087225
14.5203027725 -0.413658857346 1.3938087225
14.7132539749 -0.486689180136 1.5878521204
14.7132539749 -0.486689180136 1.5878521204
14.9935588837 -0.489833414555 1.70270454884
14.9935588837 -0.489833414555 1.70270454884
15.2701768875 -0.520470917225 1.83787572384
15.2701768875 -0.520470917225 1.83787572384
15.5712747574 -0.422079086304 1.8669064045
15.5712747574 -0.422079086304 1.8669064045
15.9197711945 -0.281284421682 1.72997462749
15.9197711945 -0.281284421682 1.72997462749
16.269411087 -0.0779566317797 1.51878428459
16.269411087 -0.0779566317797 1.51878428459
16.4961071014 0.118196167052 1.24988687038
16.4961071014 0.118196167052 1.24988687038
16.600692749 0.346582233906 0.908345401287
16.600692749 0.346582233906 0.908345401287
16.5570602417 0.550743699074 0.569369494915
16.5570602417 0.550743699074 0.569369494915
16.4064216614 0.686893045902 0.310761421919
16.4064216614 0.686893045902 0.310761421919
16.2218208313 0.750417947769 0.160331264138
16.2218208313 0.750417947769 0.160331264138
16.0606803894 0.756305217743 0.0787522867322
16.0606803894 0.756305217743 0.0787522867322
15.9306087494 0.728835761547 0.0115134995431
15.9306087494 0.728835761547 0.0115134995431
15.8084230423 0.686891674995 -0.0451165996492
15.8084230423 0.686891674995 -0.0451165996492
15.6874055862 0.638862848282 -0.0837390050292
15.6874055862 0.638862848282 -0.0837390050292
15.5711336136 0.59157538414 -0.103991791606
15.5711336136 0.59157538414 -0.103991791606
15.4622173309 0.547222197056 -0.112211845815
15.4622173309 0.547222197056 -0.112211845815
15.3571567535 0.507887721062 -0.111881434917
15.3571567535 0.507887721062 -0.111881434917
15.2561559677 0.473524212837 -0.106712400913
15.2561559677 0.473524212837 -0.106712400913
15.1549730301 0.442690104246 -0.100254669785
15.1549730301 0.442690104246 -0.100254669785
15.0519475937 0.41586175561 -0.0949875935912
15.0519475937 0.41586175561 -0.0949875935912
14.949596405 0.392655134201 -0.0940311551094
14.949596405 0.392655134201 -0.0940311551094
14.8158283234 0.372888803482 -0.102961860597
14.8158283234 0.372888803482 -0.102961860597
13.9476909637 -0.0589097328484 0.18954461813
13.9476909637 -0.0589097328484 0.18954461813
13.9742126465 -0.124735713005 0.402316719294
13.9742126465 -0.124735713005 0.402316719294
14.0242366791 -0.190625756979 0.618196070194
14.0242366791 -0.190625756979 0.618196070194
14.0987148285 -0.256638646126 0.840242147446
14.0987148285 -0.256638646126 0.840242147446
14.2031497955 -0.321243405342 1.06802415848
14.2031497955 -0.321243405342 1.06802415848
14.3444547653 -0.380967915058 1.2945343256
14.3444547653 -0.380967915058 1.2945343256
14.5303602219 -0.435918480158 1.51787722111
14.5303602219 -0.435918480158 1.51787722111
14.7603635788 -0.488607168198 1.70549547672
14.7603635788 -0.488607168198 1.70549547672
15.0381908417 -0.509445846081 1.87906742096
15.0381908417 -0.509445846081 1.87906742096
15.4012556076 -0.480232536793 1.9767165184
15.4012556076 -0.480232536793 1.9767165184
15.6541500092 -0.4052926898 2.0303850174
15.6541500092 -0.4052926898 2.0303850174
16.0533752441 -0.256723284721 1.83422112465
16.0533752441 -0.256723284721 1.83422112465
16.3923282623 -0.064861625433 1.63375163078
16.3923282623 -0.064861625433 1.63375163078
16.6681919098 0.18540123105 1.27190744877
16.6681919098 0.18540123105 1.27190744877
16.7835903168 0.452006310225 0.798594355583
16.7835903168 0.452006310225 0.798594355583
16.7012081146 0.669747531414 0.347695946693
16.7012081146 0.669747531414 0.347695946693
16.4932289124 0.802234053612 0.032708093524
16.4932289124 0.802234053612 0.032708093524
16.2543029785 0.869512975216 -0.128004401922
16.2543029785 0.869512975216 -0.128004401922
16.0567951202 0.878797590733 -0.194566354156
16.0567951202 0.878797590733 -0.194566354156
15.9089460373 0.846366465092 -0.231228858232
15.9089460373 0.846366465092 -0.231228858232
15.7847900391 0.788407981396 -0.266595840454
15.7847900391 0.788407981396 -0.266595840454
15.6711435318 0.724654018879 -0.28028395772
15.6711435318 0.724654018879 -0.28028395772
15.567401886 0.664493560791 -0.275873839855
15.567401886 0.664493560791 -0.275873839855
15.4749822617 0.609978675842 -0.26463034749
15.4749822617 0.609978675842 -0.26463034749
15.3868932724 0.563607931137 -0.24890999496
15.3868932724 0.563607931137 -0.24890999496
15.3046350479 0.525065660477 -0.23073618114
15.3046350479 0.525065660477 -0.23073618114
15.2254686356 0.491958171129 -0.213347882032
15.2254686356 0.491958171129 -0.213347882032
15.1463069916 0.463868469 -0.19901356101
15.1463069916 0.463868469 -0.19901356101
15.0691928864 0.439732849598 -0.190657183528
15.0691928864 0.439732849598 -0.190657183528
14.9661178589 0.418218880892 -0.193853929639
14.9661178589 0.418218880892 -0.193853929639
13.9479675293 -0.0598524808884 0.204372629523
13.9479675293 -0.0598524808884 0.204372629523
13.9741268158 -0.126766085625 0.43399477005
13.9741268158 -0.126766085625 0.43399477005
14.0236358643 -0.193720206618 0.667848467827
14.0236358643 -0.193720206618 0.667848467827
14.0976610184 -0.260422468185 0.909400522709
14.0976610184 -0.260422468185 0.909400522709
14.2026338577 -0.325345009565 1.15878367424
14.2026338577 -0.325345009565 1.15878367424
14.3490581512 -0.386881232262 1.40994811058
14.3490581512 -0.386881232262 1.40994811058
14.5463066101 -0.439206838608 1.65198385715
14.5463066101 -0.439206838608 1.65198385715
14.8045120239 -0.478508710861 1.86414909363
14.8045120239 -0.478508710861 1.86414909363
15.1172294617 -0.489941477776 2.04869151115
15.1172294617 -0.489941477776 2.04869151115
15.5165433884 -0.440731525421 2.13350009918
15.5165433884 -0.440731525421 2.13350009918
15.7373342514 -0.385684251785 2.19341158867
15.7373342514 -0.385684251785 2.19341158867
16.1632995605 -0.215870305896 2.00391602516
16.1632995605 -0.215870305896 2.00391602516
16.5217704773 -0.0368795357645 1.74847817421
16.5217704773 -0.0368795357645 1.74847817421
16.8787612915 0.209255978465 1.25082731247
16.8787612915 0.209255978465 1.25082731247
16.9694442749 0.495801091194 0.633336901665