# vtk DataFile Version 2.0
sampleSurface
ASCII
DATASET POLYDATA
POINTS 6837 double
581321 4785370 969.805969238
581333.6875 4785370 969.71295166
581353.3125 4785370 969.565979004
581365.625 4785370 969.362426758
581385.625 4785370 969.02746582
581397.5 4785370 969.024597168
581321 4785381.5 969.960021973
581417.875 4785370 969.007995605
581333.9375 4785381.5 969.918273926
581430.1875 4785370 969.352478027
581340.4375 4785381.5 969.868774414
581353.3125 4785381.5 969.761962891
581450.1875 4785370 969.912597656
581365.875 4785381.5 969.581787109
581463.75 4785370 970.42980957
581373.1875 4785381 969.456542969
581385.625 4785381 969.296020508
581334 4785387.5 969.993896484
581482.5 4785370 971.136413574
581340.3125 4785387.5 969.969055176
581397.75 4785381 969.221496582
581405.75 4785381 969.21484375
581497.5 4785370 971.711914062
581417.875 4785381 969.465576172
581366 4785387.5 969.68939209
581514.8125 4785370 972.389465332
581373 4785387.5 969.620727539
581430.6875 4785381.5 969.801757812
581531 4785370 972.792053223
581437.1875 4785381.5 969.99017334
581397.9375 4785388 969.393859863
581547.125 4785370 973.181945801
581450.1875 4785382 970.40020752
581405.4375 4785388 969.494567871
581321 4785399 970.19152832
581564.375 4785370 973.72467041
581464.3125 4785382.5 970.951599121
581334.1875 4785399 970.140991211
581431 4785387.5 970.04675293
581468.1875 4785383 971.104614258
581436.9375 4785387 970.199523926
581579.375 4785370 974.197387695
581353.3125 4785399 970.064453125
581482.5 4785383.5 971.689147949
581464.5 4785386 971.098449707
581597.9375 4785370 974.847839355
581468.0625 4785386 971.233520508
581366.25 4785399 969.93560791
581611.6875 4785370 975.293579102
581498.25 4785384 972.371643066
581499.0625 4785384 972.405212402
581498.25 4785385 972.404052734
581499 4785385 972.432495117
581385.625 4785399 969.7421875
581631.875 4785370 976.302368164
581514.8125 4785385 973.01171875
581398.5625 4785399 969.931396484
581530.125 4785384 973.459838867
581644 4785370 976.908569336
581531.8125 4785383.5 973.498962402
581530.0625 4785385.5 973.521118164
581417.875 4785399 970.203979492
581321 4785411 970.229492188
581531.875 4785385.5 973.586669922
581666 4785370 977.89642334
581561.4375 4785383 974.332580566
581431.5625 4785399 970.578125
581565.1875 4785383 974.443237305
581334.375 4785411 970.311706543
581676.3125 4785370 978.351928711
581547.125 4785386 974.014221191
581339.9375 4785411 970.289123535
581450.1875 4785399 971.076904297
581592.4375 4785381.5 975.478088379
581353.3125 4785411 970.234802246
581598.875 4785381.5 975.688476562
581561.25 4785386.5 974.505249023
581700.125 4785370 979.502319336
581565.5 4785386.5 974.729553223
581366.5 4785411 970.16973877
581465.125 4785399 971.659423828
581372.4375 4785411 970.109313965
581623.25 4785380.5 976.804931641
581708.625 4785370 979.908813477
581334.375 4785416 970.327331543
581632.9375 4785380 977.249023438
581339.875 4785416 970.360839844
581385.625 4785410.5 970.034362793
581482.5 4785399 972.341064453
581579.375 4785387 975.446960449
581654 4785379 978.193969727
581734.375 4785370 981.257385254
581398.875 4785411 970.188781738
581666.9375 4785378.5 978.725036621
581498.9375 4785399 972.98614502
581592 4785387.5 975.895507812
581740.875 4785370 981.567687988
581404.5625 4785411 970.271057129
581366.625 4785416 970.244140625
581684.75 4785377.5 979.528503418
581599.625 4785388 976.328735352
581372.3125 4785416 970.241149902
581514.8125 4785399 973.611450195
581700.9375 4785377 980.237121582
581417.875 4785411.5 970.62322998
581715.3125 4785376 981.063964844
581611.6875 4785389 977.006774902
581768.625 4785370 982.96673584
581532.625 4785399 974.223083496
581773.1875 4785370 983.19329834
581432.125 4785412 971.0546875
581735.1875 4785375 981.979675293
581399 4785416 970.317504883
581435.875 4785412 971.158325195
581404.375 4785416 970.431884766
581622.375 4785389.5 977.584472656
581745.9375 4785374.5 982.546020508
581547.125 4785399 974.70135498
581769.3125 4785373.5 983.559570312
581321 4785428 970.28302002
581450.1875 4785412.5 971.606933594
581634.125 4785390 978.286804199
581802.3125 4785370 984.174194336
581776.75 4785373 983.875549316
581432.25 4785415 971.171447754
581566.5625 4785399 975.65838623
581805.5 4785370 984.278747559
581435.6875 4785415 971.278869629
581334.4375 4785428 970.36529541
581644 4785390.5 978.885742188
581579.375 4785399 976.273193359
581465.8125 4785413 972.259887695
581466.875 4785413 972.303283691
581802.8125 4785372.5 984.619995117
581808.0625 4785372.5 984.761047363
581652.75 4785391 979.303222656
581465.8125 4785414 972.299987793
581466.8125 4785414 972.335205078
581353.3125 4785428 970.481506348
581835.4375 4785370 984.921264648
581837.8125 4785370 984.972351074
581600.8125 4785399 977.37689209
581482.5 4785413.5 972.894165039
581366.875 4785428 970.476013184
581497.875 4785413 973.438110352
581611.6875 4785399 977.927001953
581835.8125 4785372 985.26171875
581499.5 4785412.5 973.49987793
581668.8125 4785392.5 980.372314453
581839.6875 4785371.5 985.352844238
581497.8125 4785414.5 973.490783691
581385.625 4785428 970.466003418
581676.3125 4785393 980.879150391
581499.5625 4785414.5 973.56817627
581868.1875 4785370 985.308837891
581870.125 4785370 985.330383301
581528.75 4785411.5 974.689697266
581682.875 4785393 981.171813965
581533.3125 4785411.5 974.839111328
581635.125 4785399 979.19152832
581399.5 4785428 970.782592773
581868.5 4785371.5 985.615234375
581644 4785399 979.65838623
581871.6875 4785371.5 985.592712402
581514.8125 4785415 974.263671875
581559.4375 4785410 976.092956543
581567.4375 4785409.5 976.459960938
581417.875 4785428 971.187988281
581321 4785440 970.249084473
581900.5625 4785370 985.372253418
581816.9375 4785380.5 987
581902.375 4785370 985.36505127
581805.5 4785382 987
581528.5625 4785415.5 974.849365234
581789.0625 4785384.5 987
581590 4785408.5 977.640625
581837.8125 4785378.5 987
581669.6875 4785399 981.175231934
581704.0625 4785395 982.980102539
581432.8125 4785428 971.672912598
581334.5 4785440 970.433654785
581533.6875 4785416 975.169311523
581900.8125 4785371.5 985.626525879
581601.75 4785408 978.196350098
581676.3125 4785399 981.542541504
581904 4785371.5 985.577514648
581708.625 4785395.5 983.410583496
581339.75 4785440 970.466003418
581847.25 4785378.5 987
581712.4375 4785395.5 983.62286377
581620.5625 4785407 979.202148438
581450.1875 4785428 972.233459473
581870.125 4785377.5 987
581930.875 4785370 983.651062012
581353.3125 4785440.5 970.541931152
581547.125 4785416.5 975.902404785
581773.1875 4785389.5 987
581636 4785406 979.959533691
581934.6875 4785370 983.391235352
581651 4785405.5 980.847595215
581764.9375 4785391.5 987
581704.75 4785399 983.621582031
581466.4375 4785428 972.839233398
581367.125 4785440.5 970.691101074
581708.625 4785399 983.892028809
581558.9375 4785417.5 976.559265137
581334.5 4785445 970.420227051
581371.8125 4785440.5 970.688537598
581670.5 4785404 981.870117188
581931.5625 4785373 984.217651367
581339.6875 4785445 970.488647461
581681.375 4785403.5 982.541748047
581482.5 4785428 973.4375
581961 4785370 981.683532715
581568.25 4785418 977.168273926
581881.25 4785380 987
581385.625 4785440.5 970.776184082
581938.375 4785373.5 983.737670898
581967 4785370 981.374816895
581705.3125 4785402 984.072753906
581711.375 4785401.5 984.575012207
581740.125 4785398.5 986.332946777
581740.875 4785398.5 986.406616211
581741.5625 4785398.5 986.438110352
581500.25 4785428 974.182006836
581740.3125 4785399 986.45892334
581740.875 4785399 986.504272461
581579.375 4785418.5 977.851928711
581367.125 4785444.5 970.711914062
581740.375 4785399.5 986.552429199
581399.9375 4785441 971.139709473
581741.3125 4785399.5 986.626159668
581902.375 4785380 987
581371.6875 4785444.5 970.786804199
581747.625 4785399 987
581403.5 4785441 971.220397949
581742.375 4785400.5 987
581991.875 4785370 980.444030762
581514.8125 4785428 974.783325195
581589.0625 4785419.5 978.452453613
581740.875 4785401 987
581771.5625 4785397.5 988.448730469
581999.3125 4785370 980.215209961
581961.8125 4785374.5 982.446289062
581775 4785397.5 988.609741211
581417.875 4785441.5 971.627624512
581400 4785444 971.219177246
581915.25 4785381.5 987
581534.5625 4785428 975.942871094
581773.1875 4785399 988.904968262
581403.375 4785444 971.316955566
581775.5625 4785399 989.062255859
581802.0625 4785396 990.019836426
581972.75 4785375 981.90045166
581603.1875 4785420.5 979.494873047
581809.1875 4785395.5 990.250610352
582023.3125 4785370 979.662719727
581547.125 4785428 976.657714844
581433.375 4785442 972.151184082
581434.6875 4785442 972.194824219
581770.5625 4785401.5 989.335754395
581611.6875 4785421 980.06652832
582031.625 4785370 979.475646973
581718.9375 4785408.5 987
581433.4375 4785443 972.19152832
581434.625 4785443 972.230529785
581773.1875 4785402 989.868835449
581321 4785457 970.201538086
581833.4375 4785395 990.866882324
581776.625 4785402 990.028625488
581992.75 4785376 981.246948242
581619.0625 4785421.5 980.528625488
581805.5 4785399 991.030456543
581569.1875 4785428 977.988220215
581450.1875 4785442.5 972.723571777
581842.375 4785395 991.048950195
581810.25 4785399 991.174560547
581334.4375 4785457 970.377807617
582054.0625 4785370 978.304321289
581579.375 4785428 978.59362793
581465.6875 4785442 973.316894531
582006.25 4785376.5 980.84185791
581467.0625 4785442 973.364990234
582063.875 4785370 977.792602539
581465.6875 4785443 973.355529785
581353.3125 4785457 970.624511719
581467.125 4785443 973.416992188
581865.5625 4785395 991.003356934
581934.6875 4785387 987
581837.8125 4785399 992.067565918
581638.6875 4785423.5 982.335205078
581708.625 4785415 987
581496.625 4785440.5 974.533935547
582024.1875 4785376.5 980.475708008
581874.5 4785395 990.861328125
581500.875 4785440.5 974.704528809
581604.0625 4785428 980.246398926
581799.625 4785404.5 992.173034668
581843.5 4785399 992.024414062
581367.3125 4785457 970.869262695
582084.25 4785370 976.472412109
581644 4785423.5 982.798339844
[...]
POINT_DATA 6837
FIELD attributes 1
U 3 6837 float
10.582028389 1.13017595282e-10 0.0980604290962
10.5750112534 1.46973180154e-11 0.176108628511
10.4962663651 -1.51451337582e-10 0.282079726458
10.4742965698 -1.17028609026e-10 0.348338872194
10.3218374252 -1.21375576256e-10 0.434724867344
10.3003492355 3.3701832991e-11 0.495465397835
10.5927343369 8.1935722096e-11 0.0570946112275
10.089846611 2.90925755708e-10 0.57562494278
10.9084615707 0.000122489378555 0.179048106074
10.0833930969 1.77969153303e-10 0.634084701538
10.8809890747 0.00012195873569 0.214061722159
10.5099830627 -1.45181393236e-05 0.282243520021
9.86978340149 5.51869418219e-11 0.700802981853
10.8255577087 8.48992058309e-05 0.342219382524
9.8630027771 -3.24203858204e-11 0.753547549248
10.7657117844 8.39397034724e-05 0.373949050903
10.3423957825 -2.96147554764e-05 0.435272485018
10.9237699509 0.000123300851556 0.161132350564
9.64385414124 -1.43066100633e-10 0.792124152184
10.8912000656 0.00013583402324 0.213559955359
10.6612138748 0.000142242322909 0.487811744213
10.5782690048 0.00014215419651 0.519316673279
9.61824703217 -6.86611739686e-11 0.83008903265
10.1293125153 -1.2784899809e-05 0.577167212963
10.8362569809 9.98103059828e-05 0.342911452055
9.3994846344 -7.68374339849e-12 0.835361480713
10.7844305038 8.64633111632e-05 0.373392105103
10.5189886093 0.000268336152658 0.632339656353
9.31774806976 -6.05596952793e-12 0.848591029644
10.4572496414 0.00027280987706 0.653861999512
10.6796112061 0.000145886078826 0.48904466629
9.07884502411 -2.31081299928e-12 0.824067950249
9.91766166687 1.76282064785e-05 0.703228354454
10.6146707535 0.000168638624018 0.518819332123
10.6330375671 0 0
8.97205734253 -1.9623927483e-11 0.814009606838
10.3935594559 0.000436108355643 0.76024389267
10.6283397675 -1.50066907736e-05 0.122654676437
10.5479307175 0.000293063261779 0.634376525879
10.3546171188 0.000441466807388 0.768328726292
10.4883527756 0.000314218370477 0.65409052372
8.77219295502 -4.34511003566e-11 0.777194678783
10.5311069489 2.40654208028e-05 0.282547205687
9.70543003082 5.33258025825e-05 0.796063303947
10.4129476547 0.000464848009869 0.761646687984
8.63313961029 6.09284567243e-11 0.747444987297
10.3762702942 0.000470702158054 0.769048392773
10.5139789581 7.90093417891e-06 0.352381139994
8.46822166443 1.18688225914e-10 0.710606515408
10.2638168335 0.000666424573865 0.849595427513
10.2550554276 0.000668037566356 0.849891483784
10.2685451508 0.000673619157169 0.849949240685
10.2601203918 0.000673897739034 0.850198447704
10.3765201569 -2.7348900403e-05 0.436271101236
8.33389949799 -5.05364396164e-11 0.670470893383
9.47698974609 9.56896401476e-05 0.841442584991
10.3679418564 -9.87672592601e-06 0.502646565437
9.98515892029 0.000841473636683 0.87663513422
8.23940181732 -1.08583017577e-10 0.645085453987
9.97490119934 0.000839043525048 0.877902507782
9.99074554443 0.000847834802698 0.877094626427
10.192984581 4.51029445685e-05 0.579779863358
10.6354999542 0 0
9.98128604889 0.000848587660585 0.878680050373
8.0603017807 -1.20155344008e-10 0.594040513039
9.60325527191 0.000960233970545 0.84775775671
10.1850309372 7.53319254727e-05 0.644780576229
9.5749206543 0.00095184444217 0.845313429832
10.9525909424 0.000141978976899 0.165363445878
7.98831987381 -1.25185847799e-10 0.576591968536
9.19201087952 0.000139024559758 0.834519028664
10.9237136841 0.00015303408145 0.211749300361
9.98406887054 0.000132377637783 0.706748783588
9.20956802368 0.00101576477755 0.783804118633
10.5430192947 2.53276630247e-05 0.282675623894
9.15159034729 0.000997212366201 0.772988438606
9.62171459198 0.00097860454116 0.849799692631
7.80261135101 7.45002878833e-11 0.522698402405
9.59875106812 0.000973639835138 0.848086476326
10.8839693069 0.000109758228064 0.345798790455
9.97780513763 0.000162791649927 0.764967143536
10.8399887085 9.84436410363e-05 0.371505498886
8.82922267914 0.000975715811364 0.704211056232
7.76212358475 1.15128739875e-10 0.512952268124
10.9540147781 0.000142166638398 0.16558201611
8.7456073761 0.000933217233978 0.684203445911
10.9310007095 0.000147787504829 0.211388409138
10.3988838196 -1.74679025804e-05 0.436860620975
9.77799797058 0.00017543885042 0.800912380219
8.95254611969 0.000186196048162 0.795713067055
8.47665786743 0.000818284403067 0.623445868492
7.58354949951 1.40455104145e-11 0.460293084383
10.7645635605 0.000184492993867 0.494409620762
8.35200595856 0.000768933736254 0.593302309513
9.7515707016 0.000209740624996 0.842626988888
9.2606716156 0.00104808143806 0.790439009666
7.56216001511 0 0.45542165637
10.7157115936 0.000202090013772 0.517119765282
10.8913583755 0.000103979451524 0.346275180578
8.15094184875 0.000589538656641 0.548617064953
9.21174144745 0.00103051925544 0.780106246471
10.8550100327 9.89135951386e-05 0.371057063341
9.55162620544 0.000195589076611 0.847565293312
8.00311183929 0.000533625832759 0.512845396996
10.229142189 4.91806640639e-05 0.581165671349
7.89360666275 0.000352334784111 0.488712280989
8.72376346588 0.000232062709983 0.738140285015
7.38065862656 0 0.405115574598
9.48279953003 0.000232457663515 0.863810837269
7.3725399971 0 0.403156012297
10.667137146 0.000368698267266 0.642306923866
7.72847557068 0.000297982565826 0.449737817049
10.778298378 0.000185896089533 0.495328068733
10.6309404373 0.000382525002351 0.65467530489
10.7366323471 0.000198549125344 0.516831457615
8.93512916565 0.0010223534191 0.719085216522
7.6617398262 0.00018200755585 0.437532693148
9.285364151 0.000213144245208 0.843474626541
7.47870206833 0.000140589094372 0.397152423859
10.638967514 0 0
10.0360994339 0.000117227507872 0.709365725517
8.85347366333 0.000979005591944 0.697456777096
7.14230394363 6.33847002662e-11 0.35324588418
7.43566465378 8.10562123661e-05 0.391303241253
10.6809310913 0.000367836706573 0.643275022507
9.21201515198 0.000251193036092 0.836542010307
7.13286828995 6.81314032969e-11 0.351994097233
10.6488513947 0.000375536590582 0.654804587364
10.6428136826 -1.34011270347e-05 0.124967291951
8.53715515137 0.00026713355328 0.677148163319
9.07174968719 0.000247947784374 0.808322191238
10.5666217804 0.000557146326173 0.772212743759
10.5563030243 0.000559162057471 0.774426281452
7.20773267746 6.17429250269e-05 0.347977310419
7.17500019073 2.97544174828e-05 0.344575941563
8.63820362091 0.000886955647729 0.646785378456
10.5719127655 0.000555517268367 0.772594749928
10.5616540909 0.000555722333957 0.774604380131
10.5602064133 4.50615152658e-06 0.282918930054
6.88164615631 2.90260870894e-12 0.306076556444
6.87361049652 -3.46415848481e-13 0.305266857147
8.96214103699 0.000283957313513 0.779230773449
9.83959674835 0.000125630525872 0.804821789265
10.5513658524 -3.65419668924e-06 0.356176972389
10.3724899292 0.000706991704646 0.85598731041
8.86096572876 0.00029824176454 0.753292500973
6.9276471138 2.31004523812e-05 0.30274656415
10.3670444489 0.000708121282514 0.860055267811
8.53621959686 0.000804649898782 0.616617262363
6.90704393387 1.02806120594e-06 0.300956994295
10.3765211105 0.000699800613802 0.856175839901
10.4318780899 -2.0256758944e-05 0.437828511
8.36502742767 0.000277137238299 0.61570173502
10.371348381 0.000694790272973 0.860650718212
6.61560440063 -6.6569069701e-11 0.26483476162
6.60818243027 -6.93785653927e-11 0.264215648174
10.0982074738 0.000816082349047 0.886083304882
8.39870166779 0.000668458465952 0.584205925465
10.0732831955 0.000818347500172 0.88993281126
8.71872425079 0.000318165926728 0.708111047745
10.4313764572 -6.81186611473e-06 0.509365141392
6.65409088135 8.64233072662e-07 0.262837857008
8.65347385406 0.000332342198817 0.689991533756
6.6290974617 -1.99251317099e-05 0.260811030865
9.6328086853 9.21310202102e-05 0.853909671307
9.79264354706 0.000901885039639 0.869200885296
9.74385452271 0.000895162345842 0.865337252617
10.2778244019 2.99811781588e-05 0.583166003227
10.6367673874 0 0
6.34986257553 -2.53978587293e-12 0.229405358434
7.35401964188 -8.02970971563e-05 0.357536494732
6.34080266953 0 0.22876611352
7.48152685165 5.03359706272e-06 0.377350926399
10.112739563 0.000780474627391 0.887273430824
7.6856136322 6.05830609857e-06 0.411529064178
9.47569179535 0.000959396362305 0.819028377533
7.12167310715 -6.57795317238e-05 0.3213750422
8.49862575531 0.000324506516336 0.636191904545
8.32324028015 0.000539337575901 0.553598880768
10.2757978439 4.45841687906e-05 0.654295325279
10.9636774063 1.1868933143e-05 0.167028740048
10.0972394943 0.000753759755753 0.89286762476
6.3810338974 -1.94464864762e-05 0.227532297373
9.3884601593 0.000937934615649 0.80160588026
8.46386814117 0.000326724722981 0.626190960407
6.3562040329 -4.49760482297e-05 0.225634589791
8.27088832855 0.000270467833616 0.562517464161
10.941701889 1.68894857779e-05 0.210822880268
7.02830648422 -0.000161720585311 0.30794736743
8.28105545044 0.00043655623449 0.542429745197
9.1563243866 0.000957206531893 0.750894010067
10.0975532532 6.94726186339e-05 0.712628901005
6.80357980728 -0.000140457777889 0.275565385818
5.93312549591 0 0.191967725754
10.5644359589 1.26113154693e-05 0.28297328949
9.44847202301 3.99542150262e-05 0.858566880226
7.88334989548 0.000111630986794 0.444587856531
9.02851581573 0.000907089968678 0.719641923904
5.89037513733 0 0.18961596489
8.86418056488 0.000843755318783 0.680164396763
7.99551439285 0.000123835387058 0.46475893259
8.34639072418 0.00029837040347 0.572616636753
10.0879182816 6.99416050338e-05 0.775890886784
10.9358940125 2.31295925914e-05 0.349132239819
8.34080314636 0.000293936522212 0.569442033768
9.8423614502 0.000796619337052 0.874708116055
10.9624557495 1.18556108646e-05 0.166841253638
10.9060182571 1.89840211533e-05 0.369494140148
8.70460033417 0.000752456253394 0.638520658016
5.9991645813 -8.79720028024e-05 0.189084365964
10.9440088272 1.12826019176e-05 0.210709452629
8.60593700409 0.000644314102829 0.61453807354
9.90001869202 5.30353572685e-05 0.808880209923
5.53221082687 0 0.160502552986
9.80262851715 0.000734895060305 0.872168362141
6.70694875717 -0.000329819769831 0.262724846601
10.4556398392 1.53431415129e-06 0.438507765532
5.91144800186 -0.000164401149959 0.182888448238
5.4796628952 0 0.157715037465
8.45125102997 0.000509693578351 0.570245921612
8.42554855347 0.000425849313615 0.562750160694
8.24413871765 0.000281336921034 0.513769805431
8.24003410339 0.000248335069045 0.516136705875
8.2397108078 0.000266576593276 0.512725651264
9.87660884857 4.05231112381e-05 0.85436207056
8.25346374512 0.000251975929132 0.517635941505
8.25370025635 0.000250687415246 0.51737511158
9.2993812561 -7.7794848039e-06 0.831673383713
10.937962532 1.80869647011e-05 0.349266052246
8.27020931244 0.000276852399111 0.517056882381
10.8661708832 5.20478170074e-05 0.50113338232
8.26768302917 0.000265032751486 0.516401290894
6.52440977097 -0.000324033928337 0.238386183977
10.9172258377 2.05808009923e-05 0.3691585958
8.23138904572 0.000235387298744 0.507106482983
10.8392391205 5.95420133322e-05 0.515359044075
8.30287647247 0.000231979443925 0.519955277443
5.23833942413 0 0.137302994728
9.69739151001 2.79178061646e-06 0.85924321413
9.57480812073 0.000746976875234 0.831861555576
8.32307624817 0.000223217211897 0.523581206799
8.09649658203 0.000149673665874 0.471983730793
5.19322538376 0 0.13489831984
5.62019109726 -0.000229476223467 0.155872628093
8.06608581543 0.000148038976477 0.463763266802
10.315735817 4.19170464738e-05 0.584700703621
10.8746585846 5.35007675353e-05 0.501699149609
6.42687749863 -0.000561746710446 0.226305156946
9.68093776703 -1.96980672627e-05 0.882070302963
8.10318088531 0.000129356209072 0.472056567669
10.8517971039 5.56536870135e-05 0.515185296535
8.09254169464 0.000124265599879 0.468106299639
7.90934610367 1.07811783892e-05 0.42759335041
5.51307487488 -0.000351027323632 0.148673668504
9.51007652283 0.000628829177003 0.815933942795
7.83917951584 -2.06252607313e-05 0.41088449955
5.01509475708 0 0.11943167448
9.55094814301 -5.24462557223e-05 0.868382453918
10.7966489792 9.34442941798e-05 0.651317536831
10.784913063 9.54720017035e-05 0.655694127083
8.22723674774 7.58690657676e-05 0.488523840904
9.17978858948 -4.50845182058e-05 0.787592351437
4.97506093979 0 0.117334224284
8.64175033569 0.000151123938849 0.584640920162
10.8014173508 9.2029265943e-05 0.651651859283
10.7902135849 9.15158161661e-05 0.655732154846
8.2141752243 5.99023005634e-05 0.485856533051
10.6336860657 0 0
7.64466333389 -0.00020103911811 0.376477777958
8.22751045227 5.94381708652e-05 0.480488687754
5.33047056198 -0.00039601084427 0.131707519293
9.33606815338 0.000597448030021 0.776044607162
7.9470281601 -4.79596710647e-05 0.432845532894
9.50081157684 -7.93412764324e-05 0.86359500885
10.1456232071 5.62630666536e-05 0.715147554874
7.55255651474 -0.000264295347733 0.357114702463
7.9052734375 -6.9639958383e-05 0.422402769327
10.6436138153 -5.2881719057e-06 0.125090315938
4.75908660889 0 0.102728642523
9.40626335144 -9.17537763598e-05 0.842984616756
10.6676082611 7.52451305743e-05 0.777303159237
5.23500156403 -0.000526732939761 0.125464186072
10.6647758484 7.52650448703e-05 0.782502233982
4.6874294281 0 0.0996844619513
10.6700906754 7.41040857974e-05 0.777334809303
10.5701990128 -7.71893519413e-06 0.283057302237
10.6676073074 7.0825277362e-05 0.782981097698
7.31888532639 -0.000497191213071 0.323804199696
6.27995634079 -0.000834303209558 0.208079829812
7.69992256165 -0.00028370207292 0.386042565107
9.27448558807 0.000377974618459 0.749733805656
8.79178524017 4.12641711591e-05 0.613336026669
10.4560375214 1.12666130008e-05 0.860202789307
5.10742759705 -0.000558050349355 0.113610692322
7.2012925148 -0.000572184508201 0.304851353168
10.4425935745 8.71922748047e-06 0.870837807655
9.33504867554 -0.000117316209071 0.815121531487
8.2151184082 -0.000114236660011 0.463096052408
7.62687397003 -0.000328904396156 0.37134835124
10.5786380768 -2.14794658859e-06 0.358981847763
4.47981262207 0 0.0876455381513
9.12564182281 -9.24904670683e-05 0.74081403017
9.27923297882 -0.000112090092443 0.798592567444
9.96694946289 2.30190084949e-06 0.813287854195
9.18922138214 0.000296225916827 0.726979017258
10.2373170853 -6.24256426818e-05 0.897930383682
4.38625049591 0 0.084129139781
8.21557617188 -0.000193961721379 0.464722305536
8.94736671448 -1.03346974356e-05 0.644579052925
10.2067594528 -6.97826908436e-05 0.906576216221
4.98337316513 -0.000717879971489 0.106239929795
10.4861774445 7.40310770198e-06 0.439397454262
8.15028381348 -0.000207008022699 0.439815253019
7.35749673843 -0.000595595396589 0.332900702953
10.4664821625 -8.16803606085e-07 0.860729277134
9.99135684967 -0.000119859141705 0.891546785831
7.25710678101 -0.000655336014461 0.316808402538
4.22391891479 0 0.0755954831839
6.86265039444 -0.000890131981578 0.266577154398
10.4939117432 1.15804577945e-05 0.516051888466
10.4610967636 -1.9352963136e-05 0.873480796814
9.22088718414 -0.000139397161547 0.756979465485
9.92648410797 -0.00013092836889 0.886828422546
9.20404434204 -0.000132225104608 0.749442636967
4.84663248062 -0.000789058802184 0.0958369001746
6.78860998154 -0.000946342595853 0.255844414234
9.73532581329 -0.000145572179463 0.852949142456
8.05415821075 -0.000360020145308 0.419303178787
4.1285405159 0 0.0723680257797
9.63434505463 -0.000156703332323 0.830791354179
10.3602399826 2.10692651308e-05 0.586527407169
10.625998497 0 0
9.83817100525 -0.000105348604848 0.870552062988
9.51329994202 -0.000144014848047 0.8011084795
6.86585521698 -0.000979985925369 0.270809143782
9.13418674469 -2.43982540269e-05 0.69260174036
8.01632881165 -0.000452846725238 0.42130035162
9.10772323608 -0.000155080721015 0.692997574806
7.88041734695 -0.000544377311599 0.384219259024
6.82980728149 -0.00103598507121 0.263726562262
4.01267528534 0 0.0671088322997
9.11841201782 -6.3314459112e-05 0.687894821167
9.38933753967 -0.000157949165441 0.763930737972
9.33296585083 -0.000144205550896 0.747847318649
10.9511404037 -1.17315057651e-05 0.165093943477
10.359208107 1.22438386825e-05 0.663135707378
9.13527107239 -0.000165706209373 0.697065770626
4.65772819519 -0.00101470912341 0.0858837366104
6.53090572357 -0.00133608409669 0.226797297597
9.13312244415 -0.000164409648278 0.695681095123
10.9316368103 -1.24777325254e-05 0.211299970746
10.2781972885 -0.000108445448859 0.901410162449
7.71393203735 -0.000705519283656 0.360641270876
6.45985174179 -0.00138440786395 0.218812435865
9.1765203476 -0.000168477810803 0.697972536087
9.1688747406 -0.000165802935953 0.695161283016
3.93012738228 0 0.0647586286068
9.14562320709 -0.000173616324901 0.684313714504
10.1938419342 2.4152423066e-06 0.717708408833
9.08331489563 -0.000264693808276 0.654780209064
4.55576562881 -0.0010847277008 0.0791378319263
7.45005846024 -0.000915982760489 0.323213964701
9.07179260254 -0.00024874927476 0.647234320641
7.61551189423 -0.000756983703468 0.3595443964
10.5751562119 -3.30751845468e-06 0.283128619194
10.2565841675 -0.000157342728926 0.912793338299
9.0485534668 -0.000318776495988 0.622658848763
6.5448346138 -0.00143626169302 0.230951443315
7.11304712296 -0.00109682849143 0.287414342165
9.00212669373 -0.000267127354164 0.601000964642
6.49546194077 -0.00148003385402 0.224285677075
9.23521709442 -0.000220280373469 0.702335774899
3.83393120766 0 0.0620079264045
6.92346763611 -0.00125124095939 0.264834523201
8.96862125397 -0.000304063258227 0.583295226097
7.03746318817 -0.00110588269308 0.287076085806
10.1899242401 -3.17856029142e-05 0.786141574383
9.08289909363 -0.000252834695857 0.650763452053
10.9639835358 2.15498421312e-05 0.350936114788
9.27575492859 -0.000255150458543 0.71049118042
9.74962425232 -0.000240625726292 0.886985182762
8.84843063354 -0.000288173643639 0.545290410519
9.0985918045 -0.000264219299424 0.649338364601
10.946141243 -1.16769952001e-05 0.1643268466
10.9460554123 2.3741125915e-05 0.368276596069
3.75243520737 0 0.0605264157057
10.9339694977 -1.29060372274e-05 0.211185902357
8.78936100006 -0.000336371827871 0.530230164528
6.66765975952 -0.00155156070832 0.237057477236
10.0221033096 -6.82483732817e-05 0.816965401173
6.57167387009 -0.00169024826027 0.225581765175
6.64823436737 -0.00155597354751 0.239908277988
10.0746011734 -0.000229009092436 0.900907278061
6.08060836792 -0.00185974873602 0.184868559241
6.04404735565 -0.00187586853281 0.181798934937
6.0414056778 -0.00187858147547 0.182065397501
6.03740215302 -0.00187733303756 0.181359633803
6.04785346985 -0.00188897992484 0.182360738516
6.04583692551 -0.00189062277786 0.182256624103
6.05167913437 -0.00189429114107 0.182267189026
6.04695224762 -0.00190202589147 0.181959301233
3.67839479446 0 0.0603192672133
9.24652385712 -0.000386538828025 0.677984476089
4.31763267517 -0.00134434900247 0.0679159909487
8.58814430237 -0.000453583226772 0.480720162392
10.5153684616 1.89302500075e-05 0.440239816904
5.61105155945 -0.00210067955777 0.147411286831
6.0654168129 -0.00192769058049 0.183105692267
5.58584690094 -0.00213366164826 0.150622293353
5.55684375763 -0.00212530698627 0.143929094076
4.27169799805 -0.00137800327502 0.0651856660843
10.9657678604 2.12793947867e-05 0.351051658392
8.50701332092 -0.000527489290107 0.466862261295
10.0469369888 -0.000132679429953 0.870532572269
9.10341739655 -0.000362646736903 0.623639822006
9.21551513672 -0.000324487977196 0.667849957943
10.9565887451 2.56572056969e-05 0.367960333824
6.05179786682 -0.00203528744169 0.181621074677
5.27379369736 -0.00229060207494 0.122272968292
3.60725808144 0 0.0602783858776
9.13062381744 -0.000385342369555 0.617477059364
9.56718444824 -0.000386853178497 0.770262479782
10.0347118378 -0.000316700781696 0.899574816227
5.22586965561 -0.00233095465228 0.126757472754
9.92462539673 -0.000178337315447 0.877550303936
10.9738445282 5.13422055519e-05 0.508274555206
5.17061471939 -0.00229237601161 0.116224907339
9.36424350739 -0.000499270798173 0.68263399601
10.965180397 5.21796973771e-05 0.51358127594
5.6527762413 -0.00229506124742 0.153485551476
4.93066740036 -0.00232548429631 0.100014522672
5.62860107422 -0.0023141070269 0.152316480875
4.83562374115 -0.00234566186555 0.105034835637
3.5304889679 0 0.0623278915882
8.23181056976 -0.000789491285104 0.413322985172
10.9776115417 5.20856956427e-05 0.508525192738