# vtk DataFile Version 2.0
sampleSurface
ASCII
DATASET POLYDATA
POINTS 961 double
581321 4785370 1100
581353.375 4785370 1100
581385.625 4785370 1100
581417.75 4785370 1100
581449.875 4785370 1100
581482.125 4785370 1100
581514.4375 4785370 1100
581546.75 4785370 1100
581579 4785370 1100
581611.1875 4785370 1100
581643.4375 4785370 1100
581675.6875 4785370 1100
581707.8125 4785370 1100
581740.0625 4785370 1100
581772.5 4785370 1100
581805 4785370 1100
581837.6875 4785370 1100
581870.375 4785370 1100
581902.875 4785370 1100
581935.4375 4785370 1100
581967.75 4785370 1100
581999.875 4785370 1100
582032.125 4785370 1100
582064.5625 4785370 1100
582096.875 4785370 1100
582129 4785370 1100
582161.1875 4785370 1100
582193.4375 4785370 1100
582225.6875 4785370 1100
582258 4785370 1100
582290 4785370 1100
581321 4785399 1100
581353.375 4785399 1100
581385.625 4785398.5 1100
581417.6875 4785398.5 1100
581449.875 4785398.5 1100
581482.125 4785398.5 1100
581514.375 4785398.5 1100
581546.6875 4785398.5 1100
581578.875 4785398 1100
581611.0625 4785398 1100
581643.25 4785397.5 1100
581675.25 4785397 1100
581707.375 4785396.5 1100
581739.75 4785396 1100
581772.3125 4785395.5 1100
581804.9375 4785395 1100
581837.875 4785395 1100
581870.5625 4785395.5 1100
581903 4785396.5 1100
581935.5625 4785396.5 1100
581968.0625 4785396.5 1100
582000.3125 4785397 1100
582032.4375 4785397.5 1100
582064.8125 4785398 1100
582097.0625 4785398.5 1100
582129.0625 4785398.5 1100
582161.1875 4785398.5 1100
582193.4375 4785398.5 1100
582225.75 4785398.5 1100
582258 4785398.5 1100
582290 4785398.5 1100
581321 4785428 1100
581353.25 4785428 1100
581385.5 4785427.5 1100
581417.625 4785427.5 1100
581449.875 4785427.5 1100
581482.0625 4785427.5 1100
581514.3125 4785427.5 1100
581546.5 4785427.5 1100
581578.6875 4785427 1100
581610.6875 4785426.5 1100
581642.625 4785425.5 1100
581674.5 4785424.5 1100
581706.875 4785424.5 1100
581739.625 4785424 1100
581772.5 4785424 1100
581805.125 4785424 1100
581838.0625 4785424 1100
581870.75 4785424.5 1100
581903.1875 4785425 1100
581935.6875 4785425.5 1100
581968.25 4785425.5 1100
582000.625 4785426 1100
582032.875 4785426.5 1100
582065.1875 4785427 1100
582097.375 4785427 1100
582129.3125 4785427.5 1100
582161.25 4785427.5 1100
582193.4375 4785427.5 1100
582225.6875 4785427.5 1100
582258 4785427.5 1100
582290 4785427.5 1100
581321 4785457 1100
581353.125 4785457 1100
581385.375 4785456.5 1100
581417.5625 4785456.5 1100
581449.8125 4785456.5 1100
581482 4785456.5 1100
581514.125 4785456.5 1100
581546.25 4785456 1100
581578.1875 4785455.5 1100
581610.3125 4785455 1100
581641.875 4785454 1100
581673.9375 4785453 1100
581706.6875 4785453 1100
581739.3125 4785453 1100
581772.4375 4785453 1100
581805.25 4785453 1100
581838.375 4785453 1100
581871 4785453.5 1100
581903.5625 4785454 1100
581936 4785454.5 1100
581968.4375 4785454.5 1100
582000.8125 4785454.5 1100
582033.25 4785455 1100
582065.625 4785455.5 1100
582097.75 4785456 1100
582129.5625 4785456 1100
582161.375 4785456.5 1100
582193.5 4785456.5 1100
582225.6875 4785456.5 1100
582257.9375 4785456.5 1100
582290 4785456.5 1100
581321 4785486 1100
581353 4785486 1100
581385.25 4785485.5 1100
581417.5 4785485.5 1100
581449.75 4785485.5 1100
581481.875 4785485.5 1100
581513.875 4785485 1100
581545.8125 4785484.5 1100
581577.75 4785484 1100
581609.375 4785483.5 1100
581643.875 4785486 1100
581676.1875 4785486 1100
581708.625 4785486 1100
581739.4375 4785482 1100
581772.25 4785482 1100
581805.25 4785482 1100
581838.4375 4785482 1100
581871.3125 4785482.5 1100
581903.875 4785482.5 1100
581936.3125 4785483 1100
581968.6875 4785483 1100
582001.125 4785483 1100
582033.75 4785483.5 1100
582066.0625 4785484.5 1100
582098.125 4785484.5 1100
582129.9375 4785485 1100
582161.625 4785485.5 1100
582193.625 4785485.5 1100
582225.6875 4785485.5 1100
582257.9375 4785485.5 1100
582290 4785485.5 1100
581321 4785515 1100
581352.875 4785514.5 1100
581385.1875 4785514.5 1100
581417.4375 4785514.5 1100
581449.625 4785514.5 1100
581481.75 4785514.5 1100
581513.5 4785514 1100
581545.25 4785513.5 1100
581577.4375 4785513 1100
581609.75 4785513 1100
581644 4785515 1100
581676.3125 4785515 1100
581708.625 4785515 1100
581739.375 4785511 1100
581772.0625 4785511 1100
581805.3125 4785511 1100
581838.625 4785511 1100
581871.6875 4785511.5 1100
581904.25 4785512 1100
581936.625 4785512 1100
581968.875 4785512.5 1100
582001.3125 4785512.5 1100
582034.0625 4785513 1100
582066.4375 4785513 1100
582098.375 4785513.5 1100
582130.3125 4785514 1100
582162 4785514.5 1100
582193.8125 4785514.5 1100
582225.75 4785514.5 1100
582257.9375 4785514.5 1100
582290 4785514.5 1100
581321 4785543.5 1100
581352.875 4785543.5 1100
581385.125 4785543.5 1100
581417.3125 4785543.5 1100
581449.5 4785543.5 1100
581481.5 4785543 1100
581512.75 4785542.5 1100
581544.3125 4785542 1100
581576.25 4785541.5 1100
581609.9375 4785542.5 1100
581642.4375 4785542.5 1100
581676.3125 4785544 1100
581706.3125 4785540 1100
581738.9375 4785540 1100
581772.0625 4785540 1100
581805.5625 4785540 1100
581839 4785540.5 1100
581872 4785541 1100
581904.625 4785541.5 1100
581936.9375 4785541.5 1100
581969.0625 4785542 1100
582001.5 4785542.5 1100
582034.125 4785542.5 1100
582066.5625 4785542.5 1100
582098.625 4785543 1100
582130.625 4785543 1100
582162.3125 4785543.5 1100
582193.9375 4785543.5 1100
582225.8125 4785543.5 1100
582258 4785543.5 1100
582290 4785543.5 1100
581321 4785572.5 1100
581352.8125 4785572.5 1100
581385.0625 4785572.5 1100
581417.25 4785572.5 1100
581449.3125 4785572.5 1100
581481.125 4785572 1100
581512.1875 4785571.5 1100
581543.1875 4785571 1100
581575.3125 4785570.5 1100
581608.875 4785571 1100
581641.4375 4785570.5 1100
581676.3125 4785573 1100
581705.625 4785569 1100
581738.8125 4785569 1100
581772.3125 4785569 1100
581806.125 4785569.5 1100
581839.5625 4785570 1100
581872.4375 4785570.5 1100
581905.0625 4785571 1100
581937.375 4785571.5 1100
581969.5 4785572.5 1100
582001.875 4785573 1100
582034.1875 4785573 1100
582066.375 4785573 1100
582098.5 4785572.5 1100
582130.5625 4785572 1100
582162.3125 4785572.5 1100
582193.9375 4785572.5 1100
582225.875 4785572.5 1100
582258.0625 4785572.5 1100
582290 4785573 1100
581321 4785601.5 1100
581352.8125 4785601.5 1100
581385 4785601.5 1100
581417.1875 4785601.5 1100
581449.0625 4785601.5 1100
581480.5625 4785601 1100
581512.0625 4785600.5 1100
581543.0625 4785600 1100
581575.75 4785600 1100
581609.1875 4785600.5 1100
581641.5 4785600 1100
581676.3125 4785602 1100
581707.25 4785600.5 1100
581740.9375 4785602 1100
581772.6875 4785599 1100
581806.8125 4785599.5 1100
581840.1875 4785600 1100
581873 4785601 1100
581905.875 4785601.5 1100
581938.0625 4785602.5 1100
581970.125 4785603 1100
582002.125 4785603.5 1100
582034.1875 4785603.5 1100
582066.125 4785603 1100
582098.125 4785602.5 1100
582130.1875 4785602 1100
582162.1875 4785601.5 1100
582193.875 4785601.5 1100
582225.9375 4785601.5 1100
582258.1875 4785602 1100
582290 4785602 1100
581321 4785630.5 1100
581352.75 4785630.5 1100
581384.9375 4785630.5 1100
581417.0625 4785630.5 1100
581448.8125 4785630.5 1100
581480 4785630 1100
581511.625 4785629.5 1100
581543.0625 4785629.5 1100
581575.6875 4785629.5 1100
581608.8125 4785629.5 1100
581644 4785631 1100
581676.375 4785631 1100
581708.625 4785631 1100
581740.9375 4785631 1100
581773.25 4785629.5 1100
581807.5625 4785630.5 1100
581840.9375 4785631 1100
581873.75 4785631.5 1100
581906.5 4785632 1100
581938.375 4785632.5 1100
581969.3125 4785632.5 1100
582002.0625 4785632.5 1100
582034.0625 4785632.5 1100
582065.875 4785632.5 1100
582097.875 4785632 1100
582129.75 4785631.5 1100
582161.9375 4785631 1100
582193.8125 4785631 1100
582225.9375 4785631 1100
582258.25 4785631 1100
582290 4785631 1100
581321 4785660 1100
581352.6875 4785659.5 1100
581384.875 4785659.5 1100
581416.9375 4785659.5 1100
581448.625 4785659 1100
581479.5 4785658.5 1100
581510.8125 4785658.5 1100
581542.875 4785658.5 1100
581575.625 4785658.5 1100
581611.75 4785660 1100
581644.0625 4785660 1100
581676.375 4785660 1100
581708.625 4785660 1100
581740.9375 4785660 1100
581773.625 4785662 1100
581807.625 4785661.5 1100
581841.125 4785661 1100
581874.1875 4785661 1100
581907 4785661.5 1100
581937.5 4785661 1100
581968.75 4785661 1100
582001.75 4785661.5 1100
582033.625 4785661 1100
582065.375 4785661 1100
582097.625 4785660.5 1100
582129.5625 4785660 1100
582161.875 4785660 1100
582193.8125 4785659.5 1100
582226 4785660 1100
582258.25 4785660 1100
582290 4785660 1100
581321 4785689 1100
581352.5625 4785689 1100
581384.75 4785688.5 1100
581416.75 4785688.5 1100
581448.375 4785688 1100
581479.5 4785687.5 1100
581510.6875 4785687.5 1100
581542.8125 4785687.5 1100
581575.75 4785687.5 1100
581608.1875 4785687.5 1100
581644.0625 4785689 1100
581676.3125 4785689 1100
581708.1875 4785689.5 1100
581740.6875 4785691.5 1100
581773.5625 4785691.5 1100
581807.3125 4785691.5 1100
581840.75 4785691 1100
581873.8125 4785690.5 1100
581904.875 4785689.5 1100
581937.375 4785689.5 1100
581967 4785689 1100
582001.5625 4785689.5 1100
582033.375 4785689.5 1100
582065 4785689 1100
582097.375 4785689 1100
582129.5 4785688.5 1100
582161.8125 4785688.5 1100
582193.9375 4785689 1100
582226.125 4785689 1100
582258.3125 4785689 1100
582290 4785689 1100
581321 4785717.5 1100
581352.5 4785718 1100
581384.625 4785717.5 1100
581416.5 4785717.5 1100
581448 4785717 1100
581479.3125 4785716.5 1100
581510.75 4785716.5 1100
581542.9375 4785716.5 1100
581579.25 4785718 1100
581608.1875 4785716.5 1100
581640.9375 4785717 1100
581675 4785718 1100
581709.125 4785719 1100
581741.3125 4785720 1100
581773.625 4785720.5 1100
581806.9375 4785720.5 1100
581840.125 4785720 1100
581872.5625 4785718.5 1100
581906.375 4785716.5 1100
581938.375 4785716.5 1100
581970.1875 4785717 1100
582001.8125 4785717 1100
582033.5 4785717 1100
582064.8125 4785717 1100
582097.1875 4785717 1100
582129.625 4785717 1100
582162 4785717.5 1100
582194.25 4785718 1100
582226.25 4785718 1100
[...]
CELL_DATA 1800
FIELD attributes 1
U 3 1800 float
13.9481296539 -0.00740947993472 0.107477858663
13.9481296539 -0.00740947993472 0.107477858663
13.9754800797 -0.0150494147092 0.223714008927
13.9754800797 -0.0150494147092 0.223714008927
14.026143074 -0.0225459020585 0.337368428707
14.026143074 -0.0225459020585 0.337368428707
14.0995473862 -0.0301870536059 0.447956562042
14.0995473862 -0.0301870536059 0.447956562042
14.1964759827 -0.0380337648094 0.553482353687
14.1964759827 -0.0380337648094 0.553482353687
14.3184843063 -0.0457247495651 0.651518762112
14.3184843063 -0.0457247495651 0.651518762112
14.4659891129 -0.0526372045279 0.738577663898
14.4659891129 -0.0526372045279 0.738577663898
14.6390523911 -0.0581392683089 0.810639560223
14.6390523911 -0.0581392683089 0.810639560223
14.8347539902 -0.0614547729492 0.862786769867
14.8347539902 -0.0614547729492 0.862786769867
15.0498991013 -0.0614677220583 0.888554871082
15.0498991013 -0.0614677220583 0.888554871082
15.2762441635 -0.0564485937357 0.881043970585
15.2762441635 -0.0564485937357 0.881043970585
15.5023546219 -0.04690021649 0.832352042198
15.5023546219 -0.04690021649 0.832352042198
15.7111263275 -0.0328466258943 0.736139714718
15.7111263275 -0.0328466258943 0.736139714718
15.8822145462 -0.0154728600755 0.59038567543
15.8822145462 -0.0154728600755 0.59038567543
15.9904508591 0.0040853288956 0.403530269861
15.9904508591 0.0040853288956 0.403530269861
16.021024704 0.0236696433276 0.191873982549
16.021024704 0.0236696433276 0.191873982549
15.9708528519 0.0404424630105 -0.0207233652472
15.9708528519 0.0404424630105 -0.0207233652472
15.8546743393 0.0525947548449 -0.210732638836
15.8546743393 0.0525947548449 -0.210732638836
15.6938848495 0.0581058897078 -0.366015702486
15.6938848495 0.0581058897078 -0.366015702486
15.5079097748 0.060508210212 -0.482728332281
15.5079097748 0.060508210212 -0.482728332281
15.3145589828 0.0612613223493 -0.559159696102
15.3145589828 0.0612613223493 -0.559159696102
15.1267728806 0.0595474466681 -0.599898576736
15.1267728806 0.0595474466681 -0.599898576736
14.9516582489 0.0555096119642 -0.610173642635
14.9516582489 0.0555096119642 -0.610173642635
14.7965764999 0.0508358553052 -0.59380120039
14.7965764999 0.0508358553052 -0.59380120039
14.6673593521 0.0462162531912 -0.557874321938
14.6673593521 0.0462162531912 -0.557874321938
14.5660057068 0.0420163013041 -0.511800289154
14.5660057068 0.0420163013041 -0.511800289154
14.4907217026 0.0384411737323 -0.464913010597
14.4907217026 0.0384411737323 -0.464913010597
14.4363479614 0.0356452427804 -0.424312889576
14.4363479614 0.0356452427804 -0.424312889576
14.3976602554 0.0336433574557 -0.394570678473
14.3976602554 0.0336433574557 -0.394570678473
14.3572311401 0.032095823437 -0.377673983574
14.3572311401 0.032095823437 -0.377673983574
13.9475297928 -0.021243346855 0.110778816044
13.9475297928 -0.021243346855 0.110778816044
13.9745960236 -0.0438695624471 0.230842262506
13.9745960236 -0.0438695624471 0.230842262506
14.0248069763 -0.066284365952 0.34843724966
14.0248069763 -0.066284365952 0.34843724966
14.0975847244 -0.0889538452029 0.463160395622
14.0975847244 -0.0889538452029 0.463160395622
14.1938123703 -0.11201467365 0.573304355145
14.1938123703 -0.11201467365 0.573304355145
14.3152589798 -0.134798467159 0.676475346088
14.3152589798 -0.134798467159 0.676475346088
14.4634504318 -0.15601837635 0.769407629967
14.4634504318 -0.15601837635 0.769407629967
14.6385707855 -0.173116803169 0.847248315811
14.6385707855 -0.173116803169 0.847248315811
14.8374948502 -0.181879475713 0.904439330101
14.8374948502 -0.181879475713 0.904439330101
15.0563659668 -0.181318819523 0.934083819389
15.0563659668 -0.181318819523 0.934083819389
15.2879962921 -0.168673098087 0.92764788866
15.2879962921 -0.168673098087 0.92764788866
15.524512291 -0.143465533853 0.875030040741
15.524512291 -0.143465533853 0.875030040741
15.745765686 -0.102752663195 0.769966542721
15.745765686 -0.102752663195 0.769966542721
15.925661087 -0.0488442406058 0.611312925816
15.925661087 -0.0488442406058 0.611312925816
16.0363922119 0.0133482534438 0.409644067287
16.0363922119 0.0133482534438 0.409644067287
16.0629348755 0.0752689540386 0.183113977313
16.0629348755 0.0752689540386 0.183113977313
16.0053844452 0.125111371279 -0.0399628840387
16.0053844452 0.125111371279 -0.0399628840387
15.8816175461 0.158301457763 -0.235764414072
15.8816175461 0.158301457763 -0.235764414072
15.7125940323 0.174718379974 -0.396777123213
15.7125940323 0.174718379974 -0.396777123213
15.5205574036 0.179516300559 -0.517007291317
15.5205574036 0.179516300559 -0.517007291317
15.3231534958 0.177036449313 -0.594617187977
15.3231534958 0.177036449313 -0.594617187977
15.1329965591 0.168866470456 -0.63495182991
15.1329965591 0.168866470456 -0.63495182991
14.9567613602 0.157206386328 -0.644336223602
14.9567613602 0.157206386328 -0.644336223602
14.8017406464 0.144534915686 -0.627042233944
14.8017406464 0.144534915686 -0.627042233944
14.6728782654 0.132221847773 -0.590092301369
14.6728782654 0.132221847773 -0.590092301369
14.5719928741 0.120633818209 -0.542821228504
14.5719928741 0.120633818209 -0.542821228504
14.4970998764 0.1105190292 -0.494648963213
14.4970998764 0.1105190292 -0.494648963213
14.4432687759 0.102530270815 -0.453065574169
14.4432687759 0.102530270815 -0.453065574169
14.4049596786 0.0966915935278 -0.422613143921
14.4049596786 0.0966915935278 -0.422613143921
14.3655824661 0.0925838202238 -0.405348449945
14.3655824661 0.0925838202238 -0.405348449945
13.9474964142 -0.0335354581475 0.116709694266
13.9474964142 -0.0335354581475 0.116709694266
13.9744358063 -0.070185996592 0.24345651269
13.9744358063 -0.070185996592 0.24345651269
14.024269104 -0.106729947031 0.367962062359
14.024269104 -0.106729947031 0.367962062359
14.0962190628 -0.143698111176 0.489993691444
14.0962190628 -0.143698111176 0.489993691444
14.1913328171 -0.181228235364 0.608288884163
14.1913328171 -0.181228235364 0.608288884163
14.312212944 -0.218685850501 0.720708608627
14.312212944 -0.218685850501 0.720708608627
14.4615983963 -0.253890275955 0.823789417744
14.4615983963 -0.253890275955 0.823789417744
14.6405773163 -0.281433731318 0.911366760731
14.6405773163 -0.281433731318 0.911366760731
14.8406467438 -0.297568321228 0.979452729225
14.8406467438 -0.297568321228 0.979452729225
15.068898201 -0.295904487371 1.01507425308
15.068898201 -0.295904487371 1.01507425308
15.3155536652 -0.275409728289 1.00678384304
15.3155536652 -0.275409728289 1.00678384304
15.5720214844 -0.225453019142 0.947252511978
15.5720214844 -0.225453019142 0.947252511978
15.8122644424 -0.154401689768 0.827199399471
15.8122644424 -0.154401689768 0.827199399471
16.0075778961 -0.0648517012596 0.644679129124
16.0075778961 -0.0648517012596 0.644679129124
16.1220855713 0.0397653207183 0.411250323057
16.1220855713 0.0397653207183 0.411250323057
16.1388397217 0.142209395766 0.15336149931
16.1388397217 0.142209395766 0.15336149931
16.0627498627 0.222252771258 -0.0910752862692
16.0627498627 0.222252771258 -0.0910752862692
15.9189586639 0.273001521826 -0.299239069223
15.9189586639 0.273001521826 -0.299239069223
15.7334003448 0.296044498682 -0.46508166194
15.7334003448 0.296044498682 -0.46508166194
15.5294084549 0.297757685184 -0.585924506187
15.5294084549 0.297757685184 -0.585924506187
15.324760437 0.287018328905 -0.66125112772
15.324760437 0.287018328905 -0.66125112772
15.1301488876 0.269633054733 -0.697367310524
15.1301488876 0.269633054733 -0.697367310524
14.9530143738 0.249084711075 -0.701063156128
14.9530143738 0.249084711075 -0.701063156128
14.7989473343 0.227881252766 -0.678342103958
14.7989473343 0.227881252766 -0.678342103958
14.6724538803 0.207789853215 -0.636630654335
14.6724538803 0.207789853215 -0.636630654335
14.5744724274 0.189372912049 -0.585422456264
14.5744724274 0.189372912049 -0.585422456264
14.5024061203 0.17355749011 -0.534046828747
14.5024061203 0.17355749011 -0.534046828747
14.4513044357 0.160910472274 -0.490033358335
14.4513044357 0.160910472274 -0.490033358335
14.4155492783 0.151589483023 -0.458019196987
14.4155492783 0.151589483023 -0.458019196987
14.3794002533 0.145444884896 -0.439869016409
14.3794002533 0.145444884896 -0.439869016409
13.9473285675 -0.0442567057908 0.125148564577
13.9473285675 -0.0442567057908 0.125148564577
13.9741258621 -0.0932486355305 0.261833131313
13.9741258621 -0.0932486355305 0.261833131313
14.0234060287 -0.142281234264 0.396373271942
14.0234060287 -0.142281234264 0.396373271942
14.094045639 -0.191869527102 0.52888995409
14.094045639 -0.191869527102 0.52888995409
14.1874475479 -0.24227578938 0.65899169445
14.1874475479 -0.24227578938 0.65899169445
14.3073387146 -0.292817890644 0.784850120544
14.3073387146 -0.292817890644 0.784850120544
14.457652092 -0.33925691247 0.902514576912
14.457652092 -0.33925691247 0.902514576912
14.6361017227 -0.373300671577 1.00574660301
14.6361017227 -0.373300671577 1.00574660301
14.8414211273 -0.403199493885 1.08853399754
14.8414211273 -0.403199493885 1.08853399754
15.0816392899 -0.409836411476 1.14626049995
15.0816392899 -0.409836411476 1.14626049995
15.3571023941 -0.385442703962 1.14201378822
15.3571023941 -0.385442703962 1.14201378822
15.6399354935 -0.33788177371 1.09543704987
15.6399354935 -0.33788177371 1.09543704987
15.9116621017 -0.233142614365 0.935670733452
15.9116621017 -0.233142614365 0.935670733452
16.113368988 -0.0929492861032 0.713174521923
16.113368988 -0.0929492861032 0.713174521923
16.2316169739 0.0601376220584 0.428428262472
16.2316169739 0.0601376220584 0.428428262472
16.2327251434 0.203082963824 0.119049854577
16.2327251434 0.203082963824 0.119049854577
16.1279296875 0.311436265707 -0.162690803409
16.1279296875 0.311436265707 -0.162690803409
15.953040123 0.375491857529 -0.391407221556
15.953040123 0.375491857529 -0.391407221556
15.744178772 0.401274174452 -0.563722550869
15.744178772 0.401274174452 -0.563722550869
15.5247621536 0.397714912891 -0.681831240654
15.5247621536 0.397714912891 -0.681831240654
15.3109340668 0.377172917128 -0.750331044197
15.3109340668 0.377172917128 -0.750331044197
15.1120290756 0.349989116192 -0.778780758381
15.1120290756 0.349989116192 -0.778780758381
14.9354133606 0.320284575224 -0.774247229099
14.9354133606 0.320284575224 -0.774247229099
14.7848310471 0.290725976229 -0.743928551674
14.7848310471 0.290725976229 -0.743928551674
14.6630067825 0.264472037554 -0.695918619633
14.6630067825 0.264472037554 -0.695918619633
14.5700426102 0.241527095437 -0.639287412167
14.5700426102 0.241527095437 -0.639287412167
14.5029506683 0.221947163343 -0.583538115025
14.5029506683 0.221947163343 -0.583538115025
14.4565658569 0.206125468016 -0.536044299603
14.4565658569 0.206125468016 -0.536044299603
14.4251899719 0.194420039654 -0.501542806625
14.4251899719 0.194420039654 -0.501542806625
14.3943252563 0.186789810658 -0.481923907995
14.3943252563 0.186789810658 -0.481923907995
13.9471817017 -0.0528712011874 0.135927900672
13.9471817017 -0.0528712011874 0.135927900672
13.9736318588 -0.111739054322 0.285168409348
13.9736318588 -0.111739054322 0.285168409348
14.0218849182 -0.170761048794 0.432416677475
14.0218849182 -0.170761048794 0.432416677475
14.0906991959 -0.230558648705 0.578605413437
14.0906991959 -0.230558648705 0.578605413437
14.181930542 -0.2914070189 0.724237918854
14.181930542 -0.2914070189 0.724237918854
14.2999458313 -0.351635336876 0.866972863674
14.2999458313 -0.351635336876 0.866972863674
14.4487009048 -0.409298419952 1.00750160217
14.4487009048 -0.409298419952 1.00750160217
14.6102581024 -0.472367525101 1.15357136726
14.6102581024 -0.472367525101 1.15357136726
14.8408269882 -0.496464967728 1.22495424747
14.8408269882 -0.496464967728 1.22495424747
15.0852022171 -0.549931049347 1.33333110809
15.0852022171 -0.549931049347 1.33333110809
15.3954248428 -0.515493929386 1.33478784561
15.3954248428 -0.515493929386 1.33478784561
15.695813179 -0.451424062252 1.27321863174
15.695813179 -0.451424062252 1.27321863174
16.026058197 -0.271207004786 1.03751623631
16.026058197 -0.271207004786 1.03751623631
16.234670639 -0.0930371582508 0.773609280586
16.234670639 -0.0930371582508 0.773609280586
16.3527355194 0.103181689978 0.426137506962
16.3527355194 0.103181689978 0.426137506962
16.3310813904 0.280727207661 0.0547271929681
16.3310813904 0.280727207661 0.0547271929681
16.1886463165 0.408874690533 -0.274120748043
16.1886463165 0.408874690533 -0.274120748043
15.9751176834 0.47693413496 -0.525540649891
15.9751176834 0.47693413496 -0.525540649891
15.7370872498 0.494626551867 -0.702028989792
15.7370872498 0.494626551867 -0.702028989792
15.5008106232 0.479909002781 -0.811825931072
15.5008106232 0.479909002781 -0.811825931072
15.2796850204 0.44751137495 -0.867633879185
15.2796850204 0.44751137495 -0.867633879185
15.0800666809 0.40942260623 -0.883294403553
15.0800666809 0.40942260623 -0.883294403553
14.9064064026 0.370784342289 -0.866075158119
14.9064064026 0.370784342289 -0.866075158119
14.7613525391 0.334028840065 -0.823772072792
14.7613525391 0.334028840065 -0.823772072792
14.6462659836 0.302403897047 -0.766639173031
14.6462659836 0.302403897047 -0.766639173031
14.5602121353 0.276172190905 -0.703255295753
14.5602121353 0.276172190905 -0.703255295753
14.4995670319 0.254272669554 -0.642120838165
14.4995670319 0.254272669554 -0.642120838165
14.4593172073 0.236681640148 -0.59032613039
14.4593172073 0.236681640148 -0.59032613039
14.4335384369 0.223687380552 -0.552615046501
14.4335384369 0.223687380552 -0.552615046501
14.4093227386 0.21525721252 -0.531034946442
14.4093227386 0.21525721252 -0.531034946442
13.9471607208 -0.058979280293 0.148579776287
13.9471607208 -0.058979280293 0.148579776287
13.9729404449 -0.124736875296 0.312393039465
13.9729404449 -0.124736875296 0.312393039465
14.0197620392 -0.190732464194 0.474736899137
14.0197620392 -0.190732464194 0.474736899137
14.0865373611 -0.257569909096 0.637573540211
14.0865373611 -0.257569909096 0.637573540211
14.1752710342 -0.324771523476 0.801574289799
14.1752710342 -0.324771523476 0.801574289799
14.2901067734 -0.389885246754 0.964334666729
14.2901067734 -0.389885246754 0.964334666729
14.4356164932 -0.45865920186 1.13308036327
14.4356164932 -0.45865920186 1.13308036327
14.5926485062 -0.549222648144 1.30269837379
14.5926485062 -0.549222648144 1.30269837379
14.8490028381 -0.569195210934 1.41322338581
14.8490028381 -0.569195210934 1.41322338581
15.1161470413 -0.61901730299 1.54096567631
15.1161470413 -0.61901730299 1.54096567631
15.4450082779 -0.554655611515 1.57337296009
15.4450082779 -0.554655611515 1.57337296009
15.8082532883 -0.414060980082 1.40918767452
15.8082532883 -0.414060980082 1.40918767452
16.1608886719 -0.220000594854 1.13371860981
16.1608886719 -0.220000594854 1.13371860981
16.3978881836 -0.0331713631749 0.802160620689
16.3978881836 -0.0331713631749 0.802160620689
16.5120105743 0.187472224236 0.371393203735
16.5120105743 0.187472224236 0.371393203735
16.4552612305 0.382897049189 -0.0784507766366
16.4552612305 0.382897049189 -0.0784507766366
16.2597293854 0.511833488941 -0.455750674009
16.2597293854 0.511833488941 -0.455750674009
15.9949569702 0.569518864155 -0.718829989433
15.9949569702 0.569518864155 -0.718829989433
15.7222089767 0.571500837803 -0.879371285439
15.7222089767 0.571500837803 -0.879371285439
15.4686641693 0.539585232735 -0.968295454979
15.4686641693 0.539585232735 -0.968295454979
15.2403907776 0.490868836641 -1.00434589386
15.2403907776 0.490868836641 -1.00434589386
15.0419721603 0.440091192722 -1.00158011913
15.0419721603 0.440091192722 -1.00158011913
14.8732690811 0.393531531096 -0.967843472958
14.8732690811 0.393531531096 -0.967843472958
14.7356739044 0.352668404579 -0.91213196516
14.7356739044 0.352668404579 -0.91213196516
14.6283273697 0.318717211485 -0.844629764557
14.6283273697 0.318717211485 -0.844629764557
14.5499172211 0.291352510452 -0.774012029171
14.5499172211 0.291352510452 -0.774012029171
14.4961471558 0.268949568272 -0.706917345524
14.4961471558 0.268949568272 -0.706917345524
14.4623565674 0.251194596291 -0.650394022465
14.4623565674 0.251194596291 -0.650394022465
14.4425096512 0.238123416901 -0.609297037125
14.4425096512 0.238123416901 -0.609297037125
14.4252996445 0.229644268751 -0.585690259933
14.4252996445 0.229644268751 -0.585690259933
13.9472818375 -0.062270950526 0.162773638964
13.9472818375 -0.062270950526 0.162773638964
13.9722757339 -0.131654500961 0.342825502157
13.9722757339 -0.131654500961 0.342825502157
14.017745018 -0.201200291514 0.522308647633
14.017745018 -0.201200291514 0.522308647633
14.0828294754 -0.271235853434 0.703912079334
14.0828294754 -0.271235853434 0.703912079334
14.1703453064 -0.340643107891 0.888854622841
14.1703453064 -0.340643107891 0.888854622841
14.2854175568 -0.406631708145 1.07491183281
14.2854175568 -0.406631708145 1.07491183281
14.437253952 -0.470479786396 1.26729524136
14.437253952 -0.470479786396 1.26729524136
14.6311721802 -0.535927534103 1.43907415867
14.6311721802 -0.535927534103 1.43907415867
14.8828992844 -0.574888169765 1.61186134815
14.8828992844 -0.574888169765 1.61186134815
15.227971077 -0.563556492329 1.71234941483
15.227971077 -0.563556492329 1.71234941483
15.527384758 -0.524707257748 1.78533506393
15.527384758 -0.524707257748 1.78533506393
15.9294118881 -0.379150807858 1.55640292168
15.9294118881 -0.379150807858 1.55640292168
16.2861003876 -0.212079405785 1.30072832108
16.2861003876 -0.212079405785 1.30072832108
16.5787620544 0.0334827341139 0.878889799118
16.5787620544 0.0334827341139 0.878889799118
16.698015213 0.285272032022 0.318000793457
16.698015213 0.285272032022 0.318000793457
16.5955181122 0.483627080917 -0.240509748459
16.5955181122 0.483627080917 -0.240509748459
16.3353805542 0.597099542618 -0.670474231243
16.3353805542 0.597099542618 -0.670474231243
16.0125293732 0.639107108116 -0.937860846519
16.0125293732 0.639107108116 -0.937860846519
15.7012434006 0.626394510269 -1.08059430122
15.7012434006 0.626394510269 -1.08059430122
15.4271183014 0.576380968094 -1.13878571987
15.4271183014 0.576380968094 -1.13878571987
15.1941595078 0.510172486305 -1.14682841301
15.1941595078 0.510172486305 -1.14682841301
15.0013055801 0.447194457054 -1.12011885643
15.0013055801 0.447194457054 -1.12011885643
14.8416070938 0.393139868975 -1.06747853756
14.8416070938 0.393139868975 -1.06747853756
14.7135162354 0.348670244217 -0.998508751392
14.7135162354 0.348670244217 -0.998508751392
14.6142129898 0.314144730568 -0.921531796455
14.6142129898 0.314144730568 -0.921531796455
14.542845726 0.287542194128 -0.844291210175
14.542845726 0.287542194128 -0.844291210175
14.4954919815 0.266641527414 -0.772201836109
14.4954919815 0.266641527414 -0.772201836109
14.4674091339 0.250099390745 -0.71165138483
14.4674091339 0.250099390745 -0.71165138483
14.4530191422 0.237762868404 -0.667893350124
14.4530191422 0.237762868404 -0.667893350124
14.4425210953 0.229623049498 -0.642705261707
14.4425210953 0.229623049498 -0.642705261707
13.9474992752 -0.0624631159008 0.17802746594
13.9474992752 -0.0624631159008 0.17802746594
13.9718570709 -0.131952390075 0.375352144241
13.9718570709 -0.131952390075 0.375352144241
14.016292572 -0.201318904757 0.573164582253
14.016292572 -0.201318904757 0.573164582253
14.0801334381 -0.270386487246 0.774664521217
14.0801334381 -0.270386487246 0.774664521217
14.167093277 -0.337895542383 0.981716811657
14.167093277 -0.337895542383 0.981716811657
14.2854299545 -0.402742981911 1.19319915771
14.2854299545 -0.402742981911 1.19319915771
14.4462575912 -0.460421383381 1.40692102909
14.4462575912 -0.460421383381 1.40692102909
14.6653490067 -0.50879317522 1.60852730274
14.6653490067 -0.50879317522 1.60852730274
14.9535608292 -0.534320175648 1.80373680592
14.9535608292 -0.534320175648 1.80373680592
15.3315238953 -0.502179145813 1.89475762844
15.3315238953 -0.502179145813 1.89475762844
15.6122913361 -0.479690134525 1.98108494282
15.6122913361 -0.479690134525 1.98108494282
16.0435562134 -0.329426109791 1.7647176981
16.0435562134 -0.329426109791 1.7647176981
16.4501934052 -0.175317764282 1.46301150322
16.4501934052 -0.175317764282 1.46301150322