# vtk DataFile Version 2.0
sampleSurface
ASCII
DATASET POLYDATA
POINTS 6837 double
581321 4785370 969.805969238
581333.6875 4785370 969.71295166
581353.3125 4785370 969.565979004
581365.625 4785370 969.362426758
581385.625 4785370 969.02746582
581397.5 4785370 969.024597168
581321 4785381.5 969.960021973
581417.875 4785370 969.007995605
581333.9375 4785381.5 969.918273926
581430.1875 4785370 969.352478027
581340.4375 4785381.5 969.868774414
581353.3125 4785381.5 969.761962891
581450.1875 4785370 969.912597656
581365.875 4785381.5 969.581787109
581463.75 4785370 970.42980957
581373.1875 4785381 969.456542969
581385.625 4785381 969.296020508
581334 4785387.5 969.993896484
581482.5 4785370 971.136413574
581340.3125 4785387.5 969.969055176
581397.75 4785381 969.221496582
581405.75 4785381 969.21484375
581497.5 4785370 971.711914062
581417.875 4785381 969.465576172
581366 4785387.5 969.68939209
581514.8125 4785370 972.389465332
581373 4785387.5 969.620727539
581430.6875 4785381.5 969.801757812
581531 4785370 972.792053223
581437.1875 4785381.5 969.99017334
581397.9375 4785388 969.393859863
581547.125 4785370 973.181945801
581450.1875 4785382 970.40020752
581405.4375 4785388 969.494567871
581321 4785399 970.19152832
581564.375 4785370 973.72467041
581464.3125 4785382.5 970.951599121
581334.1875 4785399 970.140991211
581431 4785387.5 970.04675293
581468.1875 4785383 971.104614258
581436.9375 4785387 970.199523926
581579.375 4785370 974.197387695
581353.3125 4785399 970.064453125
581482.5 4785383.5 971.689147949
581464.5 4785386 971.098449707
581597.9375 4785370 974.847839355
581468.0625 4785386 971.233520508
581366.25 4785399 969.93560791
581611.6875 4785370 975.293579102
581498.25 4785384 972.371643066
581499.0625 4785384 972.405212402
581498.25 4785385 972.404052734
581499 4785385 972.432495117
581385.625 4785399 969.7421875
581631.875 4785370 976.302368164
581514.8125 4785385 973.01171875
581398.5625 4785399 969.931396484
581530.125 4785384 973.459838867
581644 4785370 976.908569336
581531.8125 4785383.5 973.498962402
581530.0625 4785385.5 973.521118164
581417.875 4785399 970.203979492
581321 4785411 970.229492188
581531.875 4785385.5 973.586669922
581666 4785370 977.89642334
581561.4375 4785383 974.332580566
581431.5625 4785399 970.578125
581565.1875 4785383 974.443237305
581334.375 4785411 970.311706543
581676.3125 4785370 978.351928711
581547.125 4785386 974.014221191
581339.9375 4785411 970.289123535
581450.1875 4785399 971.076904297
581592.4375 4785381.5 975.478088379
581353.3125 4785411 970.234802246
581598.875 4785381.5 975.688476562
581561.25 4785386.5 974.505249023
581700.125 4785370 979.502319336
581565.5 4785386.5 974.729553223
581366.5 4785411 970.16973877
581465.125 4785399 971.659423828
581372.4375 4785411 970.109313965
581623.25 4785380.5 976.804931641
581708.625 4785370 979.908813477
581334.375 4785416 970.327331543
581632.9375 4785380 977.249023438
581339.875 4785416 970.360839844
581385.625 4785410.5 970.034362793
581482.5 4785399 972.341064453
581579.375 4785387 975.446960449
581654 4785379 978.193969727
581734.375 4785370 981.257385254
581398.875 4785411 970.188781738
581666.9375 4785378.5 978.725036621
581498.9375 4785399 972.98614502
581592 4785387.5 975.895507812
581740.875 4785370 981.567687988
581404.5625 4785411 970.271057129
581366.625 4785416 970.244140625
581684.75 4785377.5 979.528503418
581599.625 4785388 976.328735352
581372.3125 4785416 970.241149902
581514.8125 4785399 973.611450195
581700.9375 4785377 980.237121582
581417.875 4785411.5 970.62322998
581715.3125 4785376 981.063964844
581611.6875 4785389 977.006774902
581768.625 4785370 982.96673584
581532.625 4785399 974.223083496
581773.1875 4785370 983.19329834
581432.125 4785412 971.0546875
581735.1875 4785375 981.979675293
581399 4785416 970.317504883
581435.875 4785412 971.158325195
581404.375 4785416 970.431884766
581622.375 4785389.5 977.584472656
581745.9375 4785374.5 982.546020508
581547.125 4785399 974.70135498
581769.3125 4785373.5 983.559570312
581321 4785428 970.28302002
581450.1875 4785412.5 971.606933594
581634.125 4785390 978.286804199
581802.3125 4785370 984.174194336
581776.75 4785373 983.875549316
581432.25 4785415 971.171447754
581566.5625 4785399 975.65838623
581805.5 4785370 984.278747559
581435.6875 4785415 971.278869629
581334.4375 4785428 970.36529541
581644 4785390.5 978.885742188
581579.375 4785399 976.273193359
581465.8125 4785413 972.259887695
581466.875 4785413 972.303283691
581802.8125 4785372.5 984.619995117
581808.0625 4785372.5 984.761047363
581652.75 4785391 979.303222656
581465.8125 4785414 972.299987793
581466.8125 4785414 972.335205078
581353.3125 4785428 970.481506348
581835.4375 4785370 984.921264648
581837.8125 4785370 984.972351074
581600.8125 4785399 977.37689209
581482.5 4785413.5 972.894165039
581366.875 4785428 970.476013184
581497.875 4785413 973.438110352
581611.6875 4785399 977.927001953
581835.8125 4785372 985.26171875
581499.5 4785412.5 973.49987793
581668.8125 4785392.5 980.372314453
581839.6875 4785371.5 985.352844238
581497.8125 4785414.5 973.490783691
581385.625 4785428 970.466003418
581676.3125 4785393 980.879150391
581499.5625 4785414.5 973.56817627
581868.1875 4785370 985.308837891
581870.125 4785370 985.330383301
581528.75 4785411.5 974.689697266
581682.875 4785393 981.171813965
581533.3125 4785411.5 974.839111328
581635.125 4785399 979.19152832
581399.5 4785428 970.782592773
581868.5 4785371.5 985.615234375
581644 4785399 979.65838623
581871.6875 4785371.5 985.592712402
581514.8125 4785415 974.263671875
581559.4375 4785410 976.092956543
581567.4375 4785409.5 976.459960938
581417.875 4785428 971.187988281
581321 4785440 970.249084473
581900.5625 4785370 985.372253418
581816.9375 4785380.5 987
581902.375 4785370 985.36505127
581805.5 4785382 987
581528.5625 4785415.5 974.849365234
581789.0625 4785384.5 987
581590 4785408.5 977.640625
581837.8125 4785378.5 987
581669.6875 4785399 981.175231934
581704.0625 4785395 982.980102539
581432.8125 4785428 971.672912598
581334.5 4785440 970.433654785
581533.6875 4785416 975.169311523
581900.8125 4785371.5 985.626525879
581601.75 4785408 978.196350098
581676.3125 4785399 981.542541504
581904 4785371.5 985.577514648
581708.625 4785395.5 983.410583496
581339.75 4785440 970.466003418
581847.25 4785378.5 987
581712.4375 4785395.5 983.62286377
581620.5625 4785407 979.202148438
581450.1875 4785428 972.233459473
581870.125 4785377.5 987
581930.875 4785370 983.651062012
581353.3125 4785440.5 970.541931152
581547.125 4785416.5 975.902404785
581773.1875 4785389.5 987
581636 4785406 979.959533691
581934.6875 4785370 983.391235352
581651 4785405.5 980.847595215
581764.9375 4785391.5 987
581704.75 4785399 983.621582031
581466.4375 4785428 972.839233398
581367.125 4785440.5 970.691101074
581708.625 4785399 983.892028809
581558.9375 4785417.5 976.559265137
581334.5 4785445 970.420227051
581371.8125 4785440.5 970.688537598
581670.5 4785404 981.870117188
581931.5625 4785373 984.217651367
581339.6875 4785445 970.488647461
581681.375 4785403.5 982.541748047
581482.5 4785428 973.4375
581961 4785370 981.683532715
581568.25 4785418 977.168273926
581881.25 4785380 987
581385.625 4785440.5 970.776184082
581938.375 4785373.5 983.737670898
581967 4785370 981.374816895
581705.3125 4785402 984.072753906
581711.375 4785401.5 984.575012207
581740.125 4785398.5 986.332946777
581740.875 4785398.5 986.406616211
581741.5625 4785398.5 986.438110352
581500.25 4785428 974.182006836
581740.3125 4785399 986.45892334
581740.875 4785399 986.504272461
581579.375 4785418.5 977.851928711
581367.125 4785444.5 970.711914062
581740.375 4785399.5 986.552429199
581399.9375 4785441 971.139709473
581741.3125 4785399.5 986.626159668
581902.375 4785380 987
581371.6875 4785444.5 970.786804199
581747.625 4785399 987
581403.5 4785441 971.220397949
581742.375 4785400.5 987
581991.875 4785370 980.444030762
581514.8125 4785428 974.783325195
581589.0625 4785419.5 978.452453613
581740.875 4785401 987
581771.5625 4785397.5 988.448730469
581999.3125 4785370 980.215209961
581961.8125 4785374.5 982.446289062
581775 4785397.5 988.609741211
581417.875 4785441.5 971.627624512
581400 4785444 971.219177246
581915.25 4785381.5 987
581534.5625 4785428 975.942871094
581773.1875 4785399 988.904968262
581403.375 4785444 971.316955566
581775.5625 4785399 989.062255859
581802.0625 4785396 990.019836426
581972.75 4785375 981.90045166
581603.1875 4785420.5 979.494873047
581809.1875 4785395.5 990.250610352
582023.3125 4785370 979.662719727
581547.125 4785428 976.657714844
581433.375 4785442 972.151184082
581434.6875 4785442 972.194824219
581770.5625 4785401.5 989.335754395
581611.6875 4785421 980.06652832
582031.625 4785370 979.475646973
581718.9375 4785408.5 987
581433.4375 4785443 972.19152832
581434.625 4785443 972.230529785
581773.1875 4785402 989.868835449
581321 4785457 970.201538086
581833.4375 4785395 990.866882324
581776.625 4785402 990.028625488
581992.75 4785376 981.246948242
581619.0625 4785421.5 980.528625488
581805.5 4785399 991.030456543
581569.1875 4785428 977.988220215
581450.1875 4785442.5 972.723571777
581842.375 4785395 991.048950195
581810.25 4785399 991.174560547
581334.4375 4785457 970.377807617
582054.0625 4785370 978.304321289
581579.375 4785428 978.59362793
581465.6875 4785442 973.316894531
582006.25 4785376.5 980.84185791
581467.0625 4785442 973.364990234
582063.875 4785370 977.792602539
581465.6875 4785443 973.355529785
581353.3125 4785457 970.624511719
581467.125 4785443 973.416992188
581865.5625 4785395 991.003356934
581934.6875 4785387 987
581837.8125 4785399 992.067565918
581638.6875 4785423.5 982.335205078
581708.625 4785415 987
581496.625 4785440.5 974.533935547
582024.1875 4785376.5 980.475708008
581874.5 4785395 990.861328125
581500.875 4785440.5 974.704528809
581604.0625 4785428 980.246398926
581799.625 4785404.5 992.173034668
581843.5 4785399 992.024414062
581367.3125 4785457 970.869262695
582084.25 4785370 976.472412109
581644 4785423.5 982.798339844
[...]
POINT_DATA 6837
FIELD attributes 1
U 3 6837 float
10.5820531845 1.1302012104e-10 0.0978996753693
10.5751037598 1.47010632834e-11 0.175734758377
10.4964771271 -1.51454460084e-10 0.281551361084
10.474697113 -1.17028178814e-10 0.347545653582
10.3225688934 -1.21365806294e-10 0.433745205402
10.3014287949 3.37223651781e-11 0.494145691395
10.592751503 8.19362147575e-11 0.0570259205997
10.0915403366 2.90974605521e-10 0.574046611786
10.9085159302 0.000125795748318 0.178736671805
10.0856542587 1.7800129426e-10 0.63206076622
10.8810834885 0.000125250779092 0.213698938489
10.5101919174 -1.32178165586e-05 0.281718790531
9.87297153473 5.51957195227e-11 0.698430418968
10.8259429932 8.56138285599e-05 0.34151506424
9.86710643768 -3.24307906918e-11 0.750613689423
10.7662181854 8.46462426125e-05 0.373175412416
10.3431215286 -2.93013272312e-05 0.434299528599
10.9238195419 0.000126629121951 0.160841837525
9.6492061615 -1.4311743457e-10 0.788832426071
10.891292572 0.000139777112054 0.213198408484
10.662355423 0.000144541205373 0.486599445343
10.5796518326 0.000144451652886 0.518002688885
9.62505435944 -6.86713325093e-11 0.826179623604
10.1309928894 -8.91227955435e-06 0.575591444969
10.836643219 0.000101216421172 0.342205166817
9.40785217285 -7.63786429936e-12 0.831209599972
10.7849311829 8.62023516675e-05 0.372620284557
10.5214710236 0.000277703162283 0.630436897278
9.32835865021 -6.02875735445e-12 0.843910098076
10.4600362778 0.000282333057839 0.651848614216
10.6807565689 0.00014717290469 0.487827271223
9.09128475189 -2.30947227488e-12 0.81936955452
9.92082309723 3.14999779221e-05 0.700857520103
10.6160383224 0.000171330262674 0.517504930496
10.6330375671 0 0
8.98782348633 -1.96539520769e-11 0.808954596519
10.398147583 0.000459432514617 0.757494091988
10.6284160614 -1.3662602214e-05 0.122345492244
10.5504245758 0.000302910833852 0.632460713387
10.3594694138 0.000465077580884 0.765506923199
10.4911203384 0.00032800246845 0.652074873447
8.78999519348 -4.35192437642e-11 0.7722427845
10.5313148499 2.72946326731e-05 0.282021850348
9.71073532104 8.57341947267e-05 0.792767882347
10.4175453186 0.000491094077006 0.758886694908
8.65568733215 6.11536168926e-11 0.742413341999
10.381108284 0.000500373425893 0.766222596169
10.5143823624 1.01413043012e-05 0.351584136486
8.49286174774 1.19096607576e-10 0.705693304539
10.2715415955 0.000709661981091 0.846024155617
10.2628564835 0.000711379572749 0.846309602261
10.2762737274 0.000718284980394 0.846375286579
10.2679166794 0.000719231902622 0.846614897251
10.3772382736 -2.97195947496e-05 0.435294896364
8.36499404907 -5.08915479203e-11 0.665810108185
9.48528671265 0.00015560828615 0.837276220322
10.3690309525 -8.50711603562e-06 0.501305222511
9.99701595306 0.000897469581105 0.872641801834
8.27251720428 -1.09246514612e-10 0.640443742275
9.98698329926 0.000894877768587 0.873853266239
10.0025787354 0.000909945461899 0.873099029064
10.194644928 5.00984933751e-05 0.57818543911
10.6354999542 0 0
9.99336051941 0.000914074480534 0.874620616436
8.10143089294 -1.20609883192e-10 0.590132713318
9.62063217163 0.00101475999691 0.843920111656
10.1873102188 9.02540123207e-05 0.642700612545
9.59299468994 0.00100589403883 0.841389000416
10.9526414871 0.000150999010657 0.165071338415
8.03111171722 -1.25602625523e-10 0.572671353817
9.20436382294 0.000231880359934 0.829765498638
10.9238033295 0.000162587297382 0.211394354701
9.98719501495 0.000159797462402 0.704350411892
9.23397922516 0.00104902766179 0.780593037605
10.5432271957 2.72657125606e-05 0.282154917717
9.17758655548 0.00102986767888 0.769716918468
9.63900470734 0.0010533981258 0.845937848091
7.85453987122 7.49852888116e-11 0.519897162914
9.61680603027 0.00105689326301 0.844105005264
10.8843536377 0.000105867053207 0.345102787018
9.98192405701 0.000207419448998 0.761959791183
10.8404693604 9.31730901357e-05 0.370754152536
8.86183261871 0.000973424117547 0.701837956905
7.81532382965 1.15829998371e-10 0.510109305382
10.9540662766 0.000151198604726 0.165289521217
8.78113269806 0.000931025366299 0.681847274303
10.9310894012 0.000157433998538 0.211034551263
10.3995990753 -2.52188528975e-05 0.435892432928
9.78325080872 0.000237573505729 0.797574281693
8.97029495239 0.000316476885928 0.790617287159
8.51797866821 0.000782902352512 0.621842205524
7.64620161057 1.41379555632e-11 0.458767086267
10.7657051086 0.00017747504171 0.493201315403
8.39776802063 0.000735685578547 0.591967582703
9.75839519501 0.000296440499369 0.838623046875
9.28482341766 0.00112850195728 0.787111520767
7.62565898895 0 0.453842312098
10.7170219421 0.00019608331786 0.515837669373
10.8917446136 0.000100100362033 0.345578163862
8.20096588135 0.000536412815563 0.547573149204
9.23769855499 0.00112409132998 0.776648461819
10.8554878235 9.1753579909e-05 0.370307385921
9.55985546112 0.000298194558127 0.843339800835
8.05896472931 0.000485538505018 0.512326657772
10.2307920456 4.83718467876e-05 0.579579591751
7.95211982727 0.000301041844068 0.48788484931
8.7484998703 0.000394351634895 0.73298573494
7.45248508453 0 0.404838383198
9.49345970154 0.000364936859114 0.858996272087
7.44488573074 0 0.402835607529
10.6696205139 0.000379219301976 0.640396535397
7.79383563995 0.000254602229688 0.449667692184
10.7794437408 0.000177026944584 0.49411636591
10.6335954666 0.000395508308429 0.652702689171
10.7379350662 0.000190938924788 0.515550255775
8.96718025208 0.00110502564348 0.716391742229
7.72847127914 0.000147047583596 0.436941117048
9.29764461517 0.000354767485987 0.838621556759
7.55205631256 0.000113584770588 0.397486656904
10.638967514 0 0
10.0392055511 0.000144622230437 0.706971645355
8.88893508911 0.00107460690197 0.694716691971
7.21973180771 6.40949654462e-11 0.354165792465
7.50953292847 6.94990012562e-05 0.391210049391
10.6834211349 0.000377419579308 0.641359388828
9.22800159454 0.000424279423896 0.831247448921
7.21051073074 6.88897480727e-11 0.352906405926
10.6514978409 0.000389302236727 0.652830958366
10.6428909302 -1.33372850541e-05 0.124659195542
8.57062530518 0.000446735270089 0.672247469425
9.0894613266 0.000422164448537 0.803070425987
10.5711936951 0.000611846859101 0.769457399845
10.5609464645 0.000614961376414 0.771651566029
7.2859377861 5.29394637852e-05 0.34897685051
7.25320339203 4.00314675062e-05 0.345379203558
8.67871856689 0.000971500005107 0.644632637501
10.5764884949 0.000610578688793 0.769836783409
10.5662946701 0.000612743140664 0.771828770638
10.5604152679 6.60655678075e-06 0.282398551702
6.96013736725 2.91609466609e-12 0.308219879866
6.95214700699 -3.66817687336e-13 0.307438969612
8.98527622223 0.000483208452351 0.77383351326
9.84481811523 0.000203008603421 0.801485776901
10.551776886 -6.91237983119e-06 0.355379641056
10.3799066544 0.000825578637887 0.85246437788
8.88576412201 0.000491084298119 0.747942268848
7.00652837753 3.10792675009e-05 0.304740101099
10.3746156693 0.000828994321637 0.856464207172
8.58204269409 0.000894948665518 0.614586949348
6.98569202423 2.86810918624e-05 0.302923738956
10.3839273453 0.000819737324491 0.852653801441
10.4325914383 -3.43265892297e-05 0.43685784936
8.40877532959 0.000448788574431 0.611515581608
10.3789186478 0.000820048560854 0.85705524683
6.69057178497 -6.73315014854e-11 0.268140137196
6.68308448792 -7.01693425587e-11 0.267562925816
10.1093959808 0.00100065721199 0.882075488567
8.44785499573 0.0007562104729 0.582329452038
10.0850811005 0.00100986601319 0.885765790939
8.7509059906 0.000519812456332 0.703043937683
10.4324817657 -1.70943621924e-05 0.50800973177
6.72929573059 2.41122888838e-05 0.265925019979
8.68710136414 0.000523634254932 0.68492937088
6.70377063751 2.57641950157e-05 0.263908982277
9.64099884033 0.000237871237914 0.849672794342
9.80890369415 0.00113944138866 0.865108728409
9.76158332825 0.00114309624769 0.861028552055
10.279466629 2.3945734938e-05 0.581568837166
10.6367673874 0 0
6.41718816757 -2.56627683513e-12 0.23382204771
7.4352145195 5.18424276379e-05 0.359112381935
6.40795516968 0 0.233229845762
7.56266498566 8.21084904601e-05 0.378503024578
10.1238794327 0.000975475297309 0.883259773254
7.76452636719 9.88244064501e-05 0.412001043558
9.49843215942 0.00122082629241 0.815187752247
7.20287561417 4.24693535024e-05 0.323773562908
8.54157066345 0.00050230283523 0.631913006306
8.37986373901 0.000627221656032 0.551956355572
10.2781066895 5.55431543035e-05 0.652175962925
10.9637317657 2.46005711233e-05 0.166733890772
10.109046936 0.000968227686826 0.888654172421
6.44845151901 2.51454275713e-05 0.231661126018
9.41403198242 0.00120863236953 0.797597527504
8.50789165497 0.000495502375998 0.621890306473
6.42287445068 2.69982538157e-05 0.229810640216
8.32633686066 0.000412268535001 0.559453964233
10.9417924881 3.02186290355e-05 0.21046936512
7.10829687119 3.20925973938e-05 0.310663968325
8.33924007416 0.00053115998162 0.540540933609
9.18678188324 0.00120814738329 0.747480094433
10.100643158 0.000101482517493 0.710209369659
6.88055181503 2.78730403807e-05 0.279108166695
5.98797702789 0 0.197301849723
10.5646486282 1.28072542793e-05 0.282451957464
9.46073722839 0.000268989300821 0.85361379385
7.96001338959 0.00018321123207 0.444441527128
9.06356906891 0.00115852325689 0.716237306595
5.94446229935 0 0.195019811392
8.9031457901 0.00105874927249 0.677143216133
8.07008171082 0.000203241375857 0.464216530323
8.40153980255 0.000436443486251 0.569526731968
10.0920801163 0.000135628521093 0.772820651531
10.9362945557 9.37030290515e-06 0.348423808813
8.39658641815 0.00042870992911 0.56632566452
9.85844421387 0.00106834154576 0.870539605618
10.9625101089 2.45729570452e-05 0.166546747088
10.9064941406 2.530958227e-06 0.368742465973
8.75017356873 0.000952654925641 0.635790407658
6.05415773392 5.28078962816e-05 0.193779096007
10.9440994263 2.45695191552e-05 0.210355892777
8.65398693085 0.000813352700789 0.611862182617
9.90522003174 0.000151196320076 0.805508494377
5.57282209396 0 0.166874840856
9.82039165497 0.00104608328547 0.867713689804
6.78113603592 3.12552620017e-05 0.266615688801
10.4563589096 -1.95138600247e-05 0.43752899766
5.96396112442 6.15457101958e-05 0.187572076917
5.51899719238 0 0.164216473699
8.50794792175 0.000650964328088 0.56810349226
8.48338317871 0.000555253354833 0.560404598713
8.31220054626 0.000381060381187 0.512349545956
8.3079662323 0.000356699049007 0.514514744282
8.30796718597 0.000368470122339 0.511229157448
9.88350105286 0.00019087966939 0.850278496742
8.32139492035 0.000358842284186 0.516015648842
8.32172870636 0.000357664306648 0.515749692917
9.31717205048 0.000315812096233 0.826240718365
10.9383640289 4.24338441007e-06 0.348556995392
8.33836650848 0.000383081176551 0.515559911728
10.8673610687 2.57889641944e-05 0.499885767698
8.33597660065 0.000371214584447 0.514853060246
6.59330654144 3.07070185954e-05 0.243016004562
10.9177017212 2.43706153924e-06 0.368406116962
8.30157184601 0.000345206761267 0.505783140659
10.8405342102 3.40028163919e-05 0.514065384865
8.37177181244 0.000356388947694 0.51839184761
5.26389360428 0 0.145004719496
9.70556259155 0.000186900695553 0.854953467846
9.59715843201 0.00108887511306 0.827791929245
8.39161777496 0.000357487850124 0.52195507288
8.17402648926 0.000253801787039 0.471495896578
5.21706008911 0 0.142778769135
5.66080904007 8.59074061736e-05 0.161081254482
8.14510154724 0.000253637612332 0.463744789362
10.3173885345 2.58416857832e-05 0.583084285259
10.8758544922 2.58619365923e-05 0.500447809696
6.49142551422 3.43894898833e-05 0.231412500143
9.69179725647 0.000235622472246 0.877086639404
8.17955303192 0.000258910702541 0.471268504858
10.853094101 2.83853496512e-05 0.513889610767
8.16994857788 0.00025862531038 0.467702656984
7.99402523041 0.000180124639883 0.428677499294
5.54956245422 9.20383754419e-05 0.153988689184
9.53574752808 0.00103015103377 0.811549901962
7.92546319962 0.000168102094904 0.412852525711
5.02434396744 0 0.128672748804
9.56321239471 0.000228794888244 0.863317549229
10.7992372513 8.90200826689e-05 0.649337649345
10.7875614166 9.25813947106e-05 0.653692126274
8.30511665344 0.000239395085373 0.487885177135
9.20492935181 0.000374950439436 0.781957864761
4.98210811615 0 0.12677963078
8.7032289505 0.000405904138461 0.581851899624
10.8040094376 8.69936484378e-05 0.64966917038
10.7928628922 8.8242617494e-05 0.653728783131
8.2905921936 0.000249185133725 0.484787613153
10.6336860657 0 0
7.73203897476 0.00012213861919 0.379472315311
8.30827236176 0.00023431541922 0.480594545603
5.3559217453 0.000103832935565 0.13780002296
9.36580944061 0.00100239377934 0.772096276283
8.02907085419 0.000183296157047 0.433275610209
9.51727294922 0.000287713715807 0.858014285564
10.1487360001 7.90980338934e-05 0.712694823742
7.63987255096 9.99928815872e-05 0.360968023539
7.98884534836 0.000181323775905 0.423788487911
10.6436948776 -7.09574851498e-06 0.124781750143
4.7512087822 0 0.113435193896
9.42409610748 0.000289670337224 0.837413549423
10.6722373962 0.000136068716529 0.774483263493
5.25498819351 0.000103661834146 0.131844446063
10.6694908142 0.000138876086567 0.779627978802
4.67669868469 0 0.110544368625
10.6747169495 0.000134065048769 0.774513244629
10.5704164505 -7.76593606133e-06 0.282534688711
10.6723279953 0.000134404413984 0.780099928379
7.40316295624 7.39142851671e-05 0.32842066884
6.33754777908 5.1075090596e-05 0.213902279735
7.7841463089 0.000132287430461 0.388462007046
9.30986499786 0.000858505372889 0.745442807674
8.85000896454 0.000405014056014 0.610041618347
10.4633893967 0.00017344103253 0.856597781181
5.11653661728 0.000109825152322 0.120895192027
7.28319835663 5.83040819038e-05 0.30995619297
10.4503364563 0.000183028590982 0.867058575153
9.35912227631 0.000352131435648 0.80933868885
8.30169487 0.000161216143169 0.464181184769
7.71175718307 0.000128537882119 0.37492364645
10.5790662766 -1.29043773995e-05 0.358170002699
4.45481824875 0 0.0997915491462
9.16029262543 0.000414902780904 0.735337376595
9.304479599 0.000361352867913 0.792818903923
9.97219562531 9.85576116364e-05 0.809857726097
9.22711467743 0.0007715280517 0.722862541676
10.2483091354 0.000220353991608 0.893722832203
4.35758733749 0 0.0964223518968
8.29850387573 0.000165695135365 0.464823067188
9.00192165375 0.000420795171522 0.640753567219
10.2188444138 0.000240911977016 0.902051985264
4.98543071747 0.000111898036266 0.113777309656
10.4869070053 -2.06085114769e-05 0.438408136368
8.24017333984 0.000130911765154 0.442412137985
7.43892097473 9.8212462035e-05 0.337356209755
10.47382164 0.000160184237757 0.857112407684
10.0072193146 0.000285535905277 0.887056052685
7.33759641647 9.46359650698e-05 0.322129458189
4.18163490295 0 0.0894342139363
6.9366607666 5.74983459956e-05 0.272047042847
10.4950647354 -1.50461573867e-05 0.5146484375
10.468875885 0.000159232789883 0.869652211666
9.25493049622 0.000406107603339 0.751418828964
9.9446144104 0.000316892052069 0.881979465485
9.23886108398 0.000411705987062 0.743861854076
4.8386888504 0.000122992889374 0.103988386691
6.85998439789 5.34870632691e-05 0.261581063271
9.75739383698 0.000364289298886 0.848430037498
8.14530658722 9.33133560466e-05 0.422712653875
4.08145332336 0 0.0864481553435
9.66043186188 0.000399797514547 0.825961232185
10.3619117737 -3.59661180482e-06 0.584887981415
10.625998497 0 0
9.84643936157 9.44085331867e-05 0.866118609905
9.54266929626 0.000431752065197 0.796561896801
6.93807888031 8.23044465506e-05 0.276464909315
9.18079662323 0.000527972064447 0.688268184662
8.10252571106 0.000115263414045 0.423806399107
9.15406799316 0.000409999891417 0.68825083971
7.97128200531 4.56845082226e-05 0.388966798782
6.90088033676 7.92193895904e-05 0.269942373037
3.95211195946 0 0.083139911294
9.16562271118 0.000487826473545 0.683546304703
9.42511558533 0.000448957056506 0.759188175201
9.37061500549 0.000454290391644 0.743201851845
10.9511966705 4.55214785688e-06 0.164801523089
10.3616065979 7.49694572733e-06 0.660932064056
9.18150043488 0.000410777836805 0.69229978323
4.64033651352 0.000131234235596 0.0941948965192
6.5925412178 5.7051263866e-05 0.233343839645
9.17955780029 0.000410745706176 0.690906941891
10.9317331314 4.42753253083e-06 0.210945352912
10.2891149521 0.00017726146325 0.897134423256
7.80263757706 2.78217339655e-05 0.365917056799
6.51866197586 6.15515673417e-05 0.22548738122
9.22331142426 0.000423822755693 0.693470835686
9.2160692215 0.000420549797127 0.690634965897
3.86317563057 0 0.081230558455
9.19559288025 0.000400798599003 0.679862380028
10.1969861984 2.10635735129e-05 0.71522128582
9.14082622528 0.000280976266367 0.650506019592
4.53104972839 0.000140289877891 0.0878920480609
7.53424119949 2.57768306255e-06 0.329028427601
9.13197422028 0.000286152382614 0.643304646015
7.6992020607 8.5264131485e-05 0.364451795816
10.5753765106 -4.52991844213e-06 0.28260371089
10.2687854767 0.000174459302798 0.908122301102
9.1174659729 0.000166250480106 0.619122803211
6.60551357269 7.78457324486e-05 0.237939849496
7.19019985199 1.49999486894e-05 0.293362468481
9.07758045197 0.000185281140148 0.59880977869
6.5544552803 7.68131721998e-05 0.231488645077
9.28326797485 0.00039587210631 0.697578012943
3.75352573395 0 0.0807000026107
6.99585533142 1.75697350642e-05 0.270936816931
9.04960727692 0.000128475410747 0.581614017487
7.1115527153 7.42396150599e-05 0.293264240026
10.1942405701 3.08768867399e-05 0.782947123051
9.13990306854 0.000315234356094 0.646241247654
10.9644002914 5.58777628612e-07 0.350217729807
9.32294464111 0.000381441641366 0.705593824387
9.76211071014 8.95621487871e-05 0.881685674191
8.93699645996 0.000132321118144 0.545867979527
9.15711307526 0.00031233052141 0.644916057587
10.9461975098 4.5309966481e-06 0.164035782218
10.9465370178 -1.03468755697e-06 0.367520332336
3.66389584541 0 0.0798022150993
10.9340667725 4.04486991101e-06 0.210831031203
8.88041877747 0.000106805382529 0.531283020973
6.73107433319 2.68998919637e-05 0.24382942915
10.0274019241 3.35223994625e-05 0.813485443592
6.63126754761 3.38632817147e-05 0.23261153698
6.71015787125 7.24013298168e-05 0.247315242887
10.0902872086 0.000195537999389 0.896223366261
6.12546777725 9.12227769732e-05 0.191943958402
6.08780860901 9.4313552836e-05 0.188872560859
6.08513784409 9.08526126295e-05 0.189205765724
6.08094501495 9.46006039158e-05 0.188433334231
6.09166097641 9.08795482246e-05 0.189504697919
6.08960294724 9.089303785e-05 0.189404562116
6.09549427032 9.41191610764e-05 0.18937690556
6.09064054489 9.44976491155e-05 0.189066573977
3.57651662827 0 0.0817945748568
9.30402946472 0.000262436195044 0.673149168491
4.28039598465 0.000150480875163 0.0770647674799
8.68395233154 6.55489930068e-05 0.484280377626
10.5161056519 -1.48916296894e-05 0.439238250256
5.63820743561 0.000130444255774 0.154828593135
6.10934686661 9.04525441001e-05 0.190274819732
5.61251688004 8.9448702056e-05 0.158956095576
5.58123779297 0.000129727195599 0.151458248496
4.23053693771 0.000154247987666 0.0746766999364
10.9661874771 2.67924406216e-07 0.350332528353
8.60308551788 5.22322661709e-05 0.470779597759
10.0541381836 4.28467974416e-05 0.866223633289
9.1699962616 0.000205630203709 0.619090259075
9.27224826813 0.00030246260576 0.662743747234
10.9570713043 -3.54824493343e-07 0.367203056812
6.09473180771 8.92968164408e-05 0.188891381025
5.28412246704 0.000149814295582 0.130356132984
3.49530076981 0 0.0823955312371
9.20143413544 0.000201346294489 0.613740980625
9.608086586 0.000331239571096 0.764569580555
10.0531291962 0.000189353100723 0.894367754459
5.23512983322 8.70039730216e-05 0.136449173093
9.93297290802 3.91201974708e-05 0.873027145863
10.9750967026 6.44945066597e-06 0.50697684288
5.17563390732 0.000148657069076 0.124441750348
9.42719650269 0.00021638427279 0.678029537201
10.9664735794 7.38018252378e-06 0.512266039848
5.68030309677 9.03220643522e-05 0.161858707666
4.9239654541 0.000162588607054 0.108537316322
5.65553474426 9.01344537851e-05 0.160737141967
4.82715654373 7.80532282079e-05 0.115964509547
3.40361833572 0 0.0864028036594
8.32723999023 -1.555739982e-05 0.419174730778
10.9788665771 6.70729059493e-06 0.507225751877
9.71527385712 0.000101129124232 0.86708176136
10.9714403152 6.96048846294e-06 0.512196063995