# Residuals        
# Time             	p                  	Ux                 	Uy                 	Uz                 	k                  	epsilon            
1                  	1.000000000000e+00	1.000000000000e+00	1.000000000000e+00	1.000000000000e+00	9.999999999900e-01	1.742621023450e-01
2                  	1.520162706680e-01	2.487806955360e-01	3.428329195940e-01	3.024665276980e-01	3.981547139250e-01	2.701640940590e-02
3                  	3.689278025840e-02	3.929307684570e-01	3.636412296580e-01	2.967331844020e-01	3.695792892240e-01	2.007985339340e-02
4                  	7.814533491520e-02	1.712993225370e-01	2.054756113080e-01	1.650213855400e-01	2.767782624680e-01	1.308425931180e-02
5                  	1.379097706840e-01	6.655845333170e-02	1.363693810610e-01	9.519622440180e-02	1.473365018650e-01	7.848899298590e-03
6                  	6.313789125940e-02	2.125137381630e-01	1.521934232610e-01	1.433049572580e-01	8.538503667180e-02	7.553242401540e-03
7                  	9.688290390960e-02	1.370806504430e-01	2.003923573470e-01	1.921140483670e-01	5.941312227540e-02	8.739435206400e-03
8                  	1.442407195180e-01	5.928006925600e-02	2.104548112830e-01	1.378233331120e-01	5.079242607030e-02	1.002794246220e-02
9                  	7.181079004980e-02	1.070377010050e-01	1.346944116000e-01	1.051602481380e-01	5.671097919130e-02	1.182300417120e-02
10                 	1.019025787760e-01	5.694127979570e-02	1.186380711890e-01	1.309908394760e-01	5.163008663760e-02	1.187718373870e-02
11                 	1.575238946590e-01	3.288693922640e-02	1.095473063220e-01	9.268727361040e-02	3.781407796590e-02	9.546361791580e-03
12                 	8.193825540610e-02	5.930316021870e-02	7.208776803420e-02	5.017617149820e-02	2.842970072980e-02	7.674625673760e-03
13                 	1.157589979120e-01	3.572296362870e-02	8.309634888370e-02	8.875781227280e-02	2.399292224220e-02	6.710720151950e-03
14                 	1.846522105140e-01	2.247418282900e-02	9.301629530090e-02	8.737547829700e-02	2.209739899160e-02	6.461292295770e-03
15                 	8.954661011080e-02	3.345847953720e-02	6.107593146070e-02	5.167114641700e-02	2.174907805940e-02	6.706220115760e-03
16                 	1.201288255200e-01	1.929594127200e-02	5.442476394980e-02	7.264912474870e-02	1.963041967610e-02	6.438757883530e-03
17                 	2.147033241260e-01	1.384178501280e-02	5.491164796080e-02	6.910017008070e-02	1.624950690570e-02	5.561939881210e-03
18                 	1.060098763760e-01	1.836580672630e-02	3.877600593000e-02	3.478604008600e-02	1.414124910080e-02	4.750210668500e-03
19                 	1.466361176660e-01	1.126587761670e-02	4.147553353090e-02	3.808612731380e-02	1.296592533360e-02	4.255656490720e-03
20                 	2.069075558050e-01	9.392697879930e-03	4.352276654010e-02	4.662514236380e-02	1.212859601790e-02	4.010611155270e-03
21                 	1.116400966740e-01	1.137282931310e-02	3.229101326790e-02	3.406344480620e-02	1.126607673640e-02	3.848983920060e-03
22                 	1.311652939400e-01	7.212566712570e-03	2.859042391190e-02	3.382225724510e-02	1.015215099260e-02	3.611189001230e-03
23                 	2.724521640020e-01	6.104960626330e-03	2.710792451530e-02	3.883078799380e-02	9.067554640510e-03	3.291776578320e-03
24                 	1.363426985970e-01	6.729093514020e-03	2.264547270140e-02	2.595977475420e-02	8.455350793460e-03	3.000177654560e-03
25                 	1.588318538840e-01	4.859898844940e-03	2.312985933990e-02	1.819715956270e-02	8.053210707990e-03	2.768036435160e-03
26                 	1.871578551910e-01	4.423712825150e-03	2.241984604730e-02	2.322492366920e-02	7.694221273530e-03	2.589426240030e-03
27                 	1.150752295670e-01	4.676701108830e-03	1.850244633950e-02	2.170557054960e-02	7.316949927080e-03	2.433246842870e-03
28                 	1.136162475920e-01	3.406952874060e-03	1.735476318340e-02	1.882867698190e-02	6.923179384180e-03	2.272901660870e-03
29                 	1.861373953350e-01	3.065835976750e-03	1.592623154200e-02	1.927487550890e-02	6.647264391010e-03	2.112339980200e-03
30                 	1.476264243360e-01	3.160505561300e-03	1.396927808310e-02	1.625258845050e-02	6.528223579970e-03	1.965657869330e-03
31                 	1.400221968390e-01	2.717354451190e-03	1.379890349940e-02	1.113198764270e-02	6.438832909130e-03	1.831598540130e-03
32                 	1.300514577060e-01	2.549513960790e-03	1.333643597840e-02	1.229188309080e-02	6.330377067420e-03	1.709135449580e-03
33                 	9.545233373800e-02	2.448404971990e-03	1.154216917550e-02	1.338856830090e-02	6.221192446150e-03	1.598502217400e-03
34                 	8.229035155630e-02	2.005704458250e-03	1.116386262150e-02	1.230672390770e-02	6.135781294520e-03	1.496767227400e-03
35                 	9.265995431470e-02	1.867758177300e-03	1.047652378220e-02	1.090879753590e-02	6.092531761150e-03	1.403765323010e-03
36                 	1.029435369580e-01	1.934903324560e-03	9.485140324930e-03	9.178657274170e-03	6.092661673950e-03	1.319572642150e-03
37                 	9.082565805560e-02	1.923487614400e-03	9.208164574730e-03	7.203976085610e-03	6.111499538310e-03	1.252544858000e-03
38                 	7.921525543110e-02	1.840495108300e-03	9.048498321820e-03	7.641798041610e-03	6.119109614830e-03	1.191725637830e-03
39                 	6.792581958700e-02	1.705257951770e-03	8.255613284540e-03	8.877370493390e-03	6.115824562550e-03	1.137410037540e-03
40                 	5.659059370880e-02	1.521089183070e-03	7.976956164320e-03	8.793667689190e-03	6.110481498930e-03	1.088961550140e-03
41                 	5.532202726330e-02	1.461644839380e-03	7.739217019780e-03	7.795913892070e-03	6.114885131340e-03	1.045436753050e-03
42                 	5.773482340710e-02	1.545904374530e-03	7.231596250000e-03	6.216660066550e-03	6.131739739000e-03	1.007082752380e-03
43                 	5.485912575930e-02	1.614140537230e-03	7.005946476500e-03	5.092328080330e-03	6.156719833900e-03	9.745521777070e-04
44                 	5.066810790830e-02	1.582336135800e-03	6.918118917220e-03	5.530367909260e-03	6.180076497430e-03	9.480309098390e-04
45                 	4.752876230490e-02	1.509540469630e-03	6.613259366790e-03	6.562494978320e-03	6.200308780120e-03	9.264100275260e-04
46                 	4.336359981830e-02	1.432733364080e-03	6.346812842410e-03	6.803551601140e-03	6.219131357790e-03	9.081073650730e-04
47                 	4.050846737660e-02	1.394395743360e-03	6.226703941500e-03	6.306406812470e-03	6.239751579900e-03	8.913617500330e-04
48                 	4.063350923770e-02	1.408990376040e-03	6.035848905870e-03	5.435048044050e-03	6.265550495440e-03	8.753056286010e-04
49                 	3.986632980280e-02	1.441638561170e-03	5.873500660030e-03	4.692155682000e-03	6.294513438680e-03	8.600332318870e-04
50                 	3.877166450370e-02	1.443968631510e-03	5.788298446030e-03	4.733599067960e-03	6.322525619710e-03	8.457014916350e-04
51                 	3.729764128960e-02	1.409313201970e-03	5.631090612560e-03	5.194649304140e-03	6.344852749870e-03	8.320359232030e-04
52                 	3.568547413150e-02	1.365586964780e-03	5.425729233070e-03	5.514510087290e-03	6.360189191470e-03	8.187068129280e-04
53                 	3.425687451790e-02	1.330289097140e-03	5.285625496940e-03	5.400957855820e-03	6.368376567730e-03	8.053264256630e-04
54                 	3.389806366190e-02	1.315090338780e-03	5.181778053820e-03	4.989184407870e-03	6.369940180480e-03	7.924064610590e-04
55                 	3.307754429080e-02	1.324533641630e-03	5.111367878100e-03	4.575238422460e-03	6.367239404510e-03	7.799816388410e-04
56                 	3.253061046870e-02	1.323207980470e-03	5.033697543890e-03	4.442555797670e-03	6.358661785120e-03	7.684053327960e-04
57                 	3.226777622000e-02	1.297387964910e-03	4.908465228500e-03	4.502242120260e-03	6.342856981470e-03	7.581621064110e-04
58                 	3.132440562840e-02	1.270470538900e-03	4.788034695180e-03	4.777469019620e-03	6.321300385320e-03	7.476444138210e-04
59                 	3.050260223210e-02	1.246601302470e-03	4.666315149860e-03	4.881216086640e-03	6.295114185440e-03	7.371523050210e-04
60                 	3.019063766160e-02	1.224745407800e-03	4.555554554280e-03	4.702847328410e-03	6.264234885630e-03	7.274152274030e-04
61                 	2.928960899920e-02	1.217105122100e-03	4.486644516890e-03	4.481323538070e-03	6.230784851480e-03	7.175807830620e-04
62                 	2.853098232740e-02	1.206168721210e-03	4.422206835290e-03	4.331493157880e-03	6.194199163200e-03	7.074160309980e-04
63                 	2.820037038920e-02	1.182818117780e-03	4.331218983000e-03	4.273785499920e-03	6.154457947990e-03	6.975160295290e-04
64                 	2.754075007500e-02	1.164380341700e-03	4.255101494810e-03	4.384255757760e-03	6.112685982010e-03	6.864399598630e-04
65                 	2.681594120050e-02	1.144685232910e-03	4.169148676120e-03	4.470677744520e-03	6.068872869260e-03	6.740590122940e-04
66                 	2.640332012530e-02	1.121179586380e-03	4.070898819750e-03	4.401770799180e-03	6.023533670260e-03	6.611906077840e-04
67                 	2.528776752570e-02	1.107726364480e-03	4.000945497540e-03	4.339458804270e-03	5.978428645840e-03	6.471340384370e-04
68                 	2.421512157430e-02	1.093238913580e-03	3.938457119740e-03	4.259941310370e-03	5.933140806480e-03	6.319762565580e-04
69                 	2.361843481550e-02	1.071320786710e-03	3.864749557020e-03	4.168052115160e-03	5.888128255260e-03	6.166380843850e-04
70                 	2.271479419040e-02	1.054450351450e-03	3.808216407930e-03	4.170289533790e-03	5.844227521660e-03	6.004214103170e-04
71                 	2.185527736000e-02	1.036412012310e-03	3.745650886280e-03	4.187775939810e-03	5.800855254840e-03	5.835508167250e-04
72                 	2.140206441070e-02	1.014181475150e-03	3.668517059330e-03	4.136873475550e-03	5.757966388160e-03	5.667686166640e-04
73                 	2.050747225790e-02	9.990969594060e-04	3.606035920770e-03	4.133080778440e-03	5.716567707220e-03	5.495183268520e-04
74                 	1.961272697440e-02	9.834351943980e-04	3.547667678490e-03	4.101021351950e-03	5.675284481270e-03	5.319358574420e-04
75                 	1.908422435460e-02	9.627254131510e-04	3.484720035290e-03	4.013368955800e-03	5.633528406660e-03	5.146453447560e-04
76                 	1.827025765280e-02	9.464738553210e-04	3.432296726510e-03	3.980656864580e-03	5.591832432060e-03	4.971331140090e-04
77                 	1.749992892730e-02	9.292757469830e-04	3.378278192610e-03	3.954683319430e-03	5.549445505970e-03	4.795029408690e-04
78                 	1.705370137870e-02	9.082117542750e-04	3.316876810250e-03	3.888003760290e-03	5.506358842390e-03	4.623313544540e-04
79                 	1.633443446480e-02	8.929550086060e-04	3.263880159310e-03	3.877792361930e-03	5.463356707230e-03	4.451346553840e-04
80                 	1.561997181280e-02	8.771700630260e-04	3.213264686360e-03	3.851836378790e-03	5.419746566520e-03	4.281925377820e-04
81                 	1.497651014590e-02	8.597774783920e-04	3.162660184220e-03	3.798923935700e-03	5.375120087930e-03	4.113490478680e-04
82                 	1.458761795290e-02	8.388774447060e-04	3.109619442190e-03	3.705118111560e-03	5.330121128160e-03	3.950359399420e-04
83                 	1.399692827550e-02	8.239733770210e-04	3.062125460570e-03	3.668207458910e-03	5.285802739560e-03	3.789142218160e-04
84                 	1.337768311260e-02	8.089039404450e-04	3.015542509530e-03	3.639340452770e-03	5.241453159820e-03	3.632328320860e-04
85                 	1.281971133130e-02	7.922879877560e-04	2.965994603520e-03	3.598732602480e-03	5.196481257940e-03	3.479536659450e-04
86                 	1.232915936260e-02	7.747055377550e-04	2.915344237040e-03	3.540713298140e-03	5.150943168930e-03	3.329628710290e-04
87                 	1.207820912180e-02	7.552339204350e-04	2.866776609890e-03	3.448843196090e-03	5.105032079980e-03	3.185959134220e-04
88                 	1.164031273270e-02	7.416686687690e-04	2.822266296620e-03	3.413309000030e-03	5.059384015810e-03	3.046581234650e-04
89                 	1.117693124120e-02	7.277814895060e-04	2.778950213370e-03	3.378948820950e-03	5.013739556100e-03	2.912445156940e-04
90                 	1.075407990940e-02	7.119909058750e-04	2.731329076070e-03	3.327184845630e-03	4.968031663210e-03	2.783118509600e-04
91                 	1.039481735230e-02	6.950005746610e-04	2.680043883860e-03	3.258646202260e-03	4.922255779210e-03	2.658814265000e-04
92                 	1.008957019940e-02	6.785073253870e-04	2.629045941290e-03	3.187319424360e-03	4.876703486370e-03	2.539704071910e-04
93                 	9.809769451310e-03	6.634014646010e-04	2.580511197780e-03	3.125336755780e-03	4.831422712700e-03	2.425981644070e-04
94                 	9.529602411960e-03	6.492887530970e-04	2.533105204050e-03	3.073798735970e-03	4.786203305760e-03	2.317976176820e-04
95                 	9.244877243650e-03	6.352602349700e-04	2.483988339020e-03	3.024857256650e-03	4.740599395650e-03	2.215633122480e-04
96                 	8.970880780300e-03	6.208115401710e-04	2.432486645040e-03	2.970865480100e-03	4.693941508380e-03	2.118218385410e-04
97                 	8.711046894730e-03	6.061468951650e-04	2.379270986450e-03	2.910503121860e-03	4.646002561640e-03	2.025170406560e-04
98                 	8.461613307680e-03	5.917658223460e-04	2.326381855140e-03	2.847780368470e-03	4.596837125560e-03	1.936406867080e-04
99                 	8.219137229470e-03	5.779531438560e-04	2.275007291350e-03	2.787550844300e-03	4.546505420060e-03	1.851432563340e-04
100                	7.974511260540e-03	5.645984084100e-04	2.224482266830e-03	2.731142515630e-03	4.495169174300e-03	1.769911424460e-04
101                	7.731345426810e-03	5.514512387950e-04	2.174117081610e-03	2.676667612280e-03	4.443301615790e-03	1.691959278490e-04
102                	7.498290038900e-03	5.383538732400e-04	2.123679499410e-03	2.621501830830e-03	4.390842896180e-03	1.617709871610e-04
103                	7.264876050290e-03	5.253508839360e-04	2.073835081020e-03	2.564600502780e-03	4.337902275090e-03	1.547087491560e-04
104                	7.037773149860e-03	5.125939870630e-04	2.024925304890e-03	2.506651566860e-03	4.284592764480e-03	1.480013841200e-04
105                	6.818173834610e-03	5.001631347740e-04	1.977310211790e-03	2.449374838020e-03	4.230995106360e-03	1.416681495750e-04
106                	6.600808783230e-03	4.880293219980e-04	1.931556819320e-03	2.393934061460e-03	4.177237698700e-03	1.357017201690e-04
107                	6.384199251500e-03	4.761229674850e-04	1.887268587490e-03	2.340232847140e-03	4.123519883610e-03	1.300934355180e-04
108                	6.168609509020e-03	4.643889101530e-04	1.844194495270e-03	2.287571754320e-03	4.069903957590e-03	1.248533995690e-04
109                	5.959192422370e-03	4.528408787730e-04	1.802521870130e-03	2.235415020230e-03	4.016504383330e-03	1.199551025470e-04
110                	5.759755381880e-03	4.415241038010e-04	1.762218964460e-03	2.183733684360e-03	3.963385983980e-03	1.153746467030e-04
111                	5.572511039780e-03	4.304494944610e-04	1.723575585880e-03	2.132903194500e-03	3.910500687500e-03	1.110534815710e-04
112                	5.397986492810e-03	4.196097697900e-04	1.686358922560e-03	2.083420729560e-03	3.857849400090e-03	1.069527910140e-04
113                	5.231672751220e-03	4.089815410160e-04	1.650735886400e-03	2.035331310460e-03	3.805342588650e-03	1.030636588430e-04
114                	5.064927654020e-03	3.985368378010e-04	1.616443565690e-03	1.988446946410e-03	3.753160294750e-03	9.937450834730e-05
115                	4.895715223580e-03	3.882851835350e-04	1.583445363060e-03	1.942301923280e-03	3.701410895840e-03	9.587036478390e-05
116                	4.729838082790e-03	3.782320202980e-04	1.551363390860e-03	1.896640372320e-03	3.650038576630e-03	9.254377070130e-05
117                	4.578512306330e-03	3.683892559970e-04	1.520485651750e-03	1.851355296640e-03	3.599176216050e-03	8.937587549070e-05
118                	4.432112407970e-03	3.587589678240e-04	1.490685452290e-03	1.806686072110e-03	3.548759880810e-03	8.636131333680e-05
119                	4.291848470930e-03	3.493130962270e-04	1.461636597850e-03	1.762675570560e-03	3.498816011130e-03	8.350197761830e-05
120                	4.152804952840e-03	3.400542592650e-04	1.433567612760e-03	1.719274233580e-03	3.449216665620e-03	8.078553179410e-05
121                	4.018204286080e-03	3.309766629380e-04	1.406497458720e-03	1.676517917810e-03	3.400112183910e-03	7.820374377420e-05
122                	3.891559368460e-03	3.220815667710e-04	1.380384607060e-03	1.634247786280e-03	3.351624089980e-03	7.574251539070e-05
123                	3.770595193550e-03	3.133804521070e-04	1.355071219850e-03	1.592474564080e-03	3.303621740440e-03	7.339899813280e-05
124                	3.651119584860e-03	3.048553300590e-04	1.330673625740e-03	1.551284900480e-03	3.256201025330e-03	7.115169861710e-05
125                	3.534932981740e-03	2.965051801130e-04	1.306992673480e-03	1.510810239550e-03	3.209275253550e-03	6.899208821070e-05
126                	3.421646396800e-03	2.883331573760e-04	1.283929040520e-03	1.471137578710e-03	3.162653631550e-03	6.691221748720e-05
127                	3.311673233550e-03	2.803270309420e-04	1.261496512650e-03	1.432305758400e-03	3.116569856950e-03	6.490968866940e-05
128                	3.204849391140e-03	2.724775702980e-04	1.239416594770e-03	1.394340221660e-03	3.070965415490e-03	6.298659745220e-05
129                	3.098014100270e-03	2.647909088390e-04	1.217689798110e-03	1.357231070250e-03	3.025709350030e-03	6.112992025050e-05
130                	2.990058172410e-03	2.572572365720e-04	1.196464765310e-03	1.321083017980e-03	2.980648597320e-03	5.933939748750e-05
131                	2.881960470820e-03	2.498839401330e-04	1.175829450500e-03	1.285856724890e-03	2.935894380010e-03	5.760911253470e-05
132                	2.777250938720e-03	2.426587766280e-04	1.155734409100e-03	1.251583987270e-03	2.891198017750e-03	5.595471050420e-05
133                	2.674146210370e-03	2.356009129910e-04	1.136096608240e-03	1.218244970480e-03	2.846625263010e-03	5.436005154040e-05
134                	2.574356512340e-03	2.286832914470e-04	1.116674165950e-03	1.185858918000e-03	2.802083638700e-03	5.282207813850e-05
135                	2.479071475200e-03	2.219126423690e-04	1.097049308680e-03	1.154411565360e-03	2.757592001120e-03	5.132861063190e-05
136                	2.388191982450e-03	2.152977066210e-04	1.077227465400e-03	1.123868157520e-03	2.713163317900e-03	4.986950173670e-05
137                	2.301535517750e-03	2.088324696420e-04	1.057318966580e-03	1.094217798930e-03	2.668766253320e-03	4.844462509370e-05
138                	2.216389287180e-03	2.025171437480e-04	1.037217652210e-03	1.065462432920e-03	2.624228732520e-03	4.704920517950e-05
139                	2.133669054740e-03	1.963418081320e-04	1.017042876180e-03	1.037629458690e-03	2.579537704190e-03	4.568205480930e-05
140                	2.055609077300e-03	1.903103963370e-04	9.968417886320e-04	1.010729403830e-03	2.534559544970e-03	4.434212110590e-05
141                	1.978667283010e-03	1.844286727550e-04	9.767586640640e-04	9.846922686340e-04	2.489079254650e-03	4.303049408530e-05
142                	1.905191912380e-03	1.786877796030e-04	9.567237208490e-04	9.594771138590e-04	2.443110266760e-03	4.174208892460e-05
143                	1.834512336850e-03	1.730801245920e-04	9.367899861570e-04	9.350973900810e-04	2.396399834620e-03	4.047456119920e-05
144                	1.764692080880e-03	1.676069954530e-04	9.169424197800e-04	9.115977034220e-04	2.348844306910e-03	3.922258201480e-05
145                	1.695880827340e-03	1.622730870580e-04	8.970223481220e-04	8.889606445660e-04	2.300156717050e-03	3.798773938490e-05
146                	1.629723187570e-03	1.570717278560e-04	8.769480277450e-04	8.670600394830e-04	2.250212699390e-03	3.677154137060e-05
147                	1.566971816840e-03	1.519933721720e-04	8.567899839950e-04	8.458935558370e-04	2.198855720480e-03	3.557319979270e-05
148                	1.507381154640e-03	1.470399123610e-04	8.367184746070e-04	8.253497013120e-04	2.145950895340e-03	3.438572525280e-05
149                	1.450713307310e-03	1.422002136120e-04	8.166668938570e-04	8.053578541410e-04	2.091503590550e-03	3.321154561380e-05
150                	1.398256063650e-03	1.374744468840e-04	7.965750809230e-04	7.859060715960e-04	2.035450067860e-03	3.205023684460e-05
151                	1.347726103410e-03	1.328500969900e-04	7.764413918790e-04	7.668877739800e-04	1.977712130930e-03	3.090111231390e-05
152                	1.299575029020e-03	1.283239928440e-04	7.563003837000e-04	7.481923021660e-04	1.918361397360e-03	2.977080752570e-05
153                	1.252666432340e-03	1.238953168420e-04	7.362093645080e-04	7.297646647840e-04	1.857456883060e-03	2.865631392400e-05
154                	1.207293919790e-03	1.195692738400e-04	7.161299249370e-04	7.115657526070e-04	1.795118187960e-03	2.755903629310e-05
155                	1.164179758390e-03	1.153455317790e-04	6.961100669970e-04	6.934637611390e-04	1.731566352060e-03	2.648144230510e-05
156                	1.121600103590e-03	1.112065374930e-04	6.760119285630e-04	6.756181620230e-04	1.666960472310e-03	2.542342959390e-05
157                	1.081520561830e-03	1.071554151200e-04	6.558690929340e-04	6.578427691760e-04	1.601503507940e-03	2.438435212260e-05
158                	1.043309608100e-03	1.031913159260e-04	6.356815576430e-04	6.399466926810e-04	1.535442141960e-03	2.336619197620e-05
159                	1.007345863130e-03	9.930725384570e-05	6.154298265870e-04	6.218445019420e-04	1.469007466670e-03	2.237036986780e-05
160                	9.749789433640e-04	9.550289300140e-05	5.951717743340e-04	6.035895573350e-04	1.402516024440e-03	2.139795794390e-05
161                	9.437349504590e-04	9.178209262170e-05	5.749337398310e-04	5.853205942640e-04	1.336222945580e-03	2.044950759450e-05
162                	9.127018776510e-04	8.814067335880e-05	5.547165773680e-04	5.670590241090e-04	1.270480054170e-03	1.952554715090e-05
163                	8.820277528770e-04	8.457607020310e-05	5.345975757220e-04	5.487599890710e-04	1.205495687900e-03	1.862893012760e-05
164                	8.518065075850e-04	8.108643277250e-05	5.146397269080e-04	5.303455885050e-04	1.141654445690e-03	1.776032456780e-05
165                	8.214387724130e-04	7.767257768800e-05	4.949380415740e-04	5.118366923540e-04	1.079271984820e-03	1.691988390370e-05
166                	7.919103396450e-04	7.433918403930e-05	4.754638583380e-04	4.932927533320e-04	1.018601250030e-03	1.610828987830e-05
167                	7.627807738080e-04	7.109148242420e-05	4.561895721290e-04	4.747927155330e-04	9.598490249740e-04	1.532850135410e-05
168                	7.335500407900e-04	6.792707074180e-05	4.371186663310e-04	4.564091696140e-04	9.032257194900e-04	1.457904232780e-05
169                	7.047639251800e-04	6.484801762500e-05	4.183482883270e-04	4.381576501150e-04	8.488749292140e-04	1.386006439580e-05
170                	6.759894511830e-04	6.185556546780e-05	3.999498563860e-04	4.200683407520e-04	7.969433764640e-04	1.317211626280e-05
171                	6.474434077530e-04	5.895309766260e-05	3.819558524370e-04	4.021887777750e-04	7.475159395540e-04	1.251501968030e-05
172                	6.191226077290e-04	5.614362645170e-05	3.643462662770e-04	3.845723700060e-04	7.006759227650e-04	1.188828708700e-05
173                	5.911841557360e-04	5.342879340110e-05	3.471125188480e-04	3.672802643040e-04	6.564679792130e-04	1.129176937220e-05
174                	5.636104481030e-04	5.080900678350e-05	3.302888050080e-04	3.503679643530e-04	6.148633549980e-04	1.072502162380e-05
175                	5.366084157680e-04	4.828608086730e-05	3.139255680380e-04	3.338931889950e-04	5.758368568220e-04	1.018649040950e-05
176                	5.102975138490e-04	4.586002220430e-05	2.980725237800e-04	3.178576242830e-04	5.392824208490e-04	9.675767752410e-06
177                	4.845955919410e-04	4.353184380940e-05	2.827318633030e-04	3.022961722100e-04	5.051133048540e-04	9.191878428470e-06
178                	4.596180228600e-04	4.130200924700e-05	2.678925584790e-04	2.872491314510e-04	4.732561008880e-04	8.733153527970e-06
179                	4.355775635720e-04	3.916931782080e-05	2.535619210840e-04	2.727477639740e-04	4.435850832160e-04	8.298326019050e-06
180                	4.123968599590e-04	3.713313132430e-05	2.397323000060e-04	2.588155735080e-04	4.159550862250e-04	7.886242588770e-06
181                	3.899733427810e-04	3.519138413960e-05	2.264087657860e-04	2.454610165610e-04	3.902514278700e-04	7.495795096610e-06
182                	3.683932001730e-04	3.334258791990e-05	2.135952390300e-04	2.326808737020e-04	3.663434057010e-04	7.125523693760e-06
183                	3.479797622760e-04	3.158477343770e-05	2.012932735130e-04	2.204702258860e-04	3.440869289190e-04	6.774031455990e-06
184                	3.287772690620e-04	2.991596558970e-05	1.895063068890e-04	2.088272484830e-04	3.233735431430e-04	6.439783238380e-06
185                	3.105893507900e-04	2.833320499960e-05	1.782355405470e-04	1.977496230930e-04	3.040801606090e-04	6.122274515700e-06
186                	2.933790188940e-04	2.683291876080e-05	1.674741830860e-04	1.872277916470e-04	2.860805611460e-04	5.820529802280e-06
187                	2.770917616850e-04	2.541189244660e-05	1.572181616230e-04	1.772481582060e-04	2.692789256810e-04	5.533086271290e-06
188                	2.617000482910e-04	2.406681300160e-05	1.474646464710e-04	1.677902310980e-04	2.535826366470e-04	5.259544241250e-06
189                	2.471348687720e-04	2.279454105820e-05	1.381974696030e-04	1.588307285170e-04	2.389024155210e-04	4.999049197830e-06
190                	2.334377266070e-04	2.159194789830e-05	1.294054503170e-04	1.503472294510e-04	2.251546979310e-04	4.751298144490e-06
191                	2.206003155810e-04	2.045546071080e-05	1.210824468940e-04	1.423183786010e-04	2.122683449650e-04	4.515474155070e-06
192                	2.085033262030e-04	1.938126971770e-05	1.132179172220e-04	1.347254596450e-04	2.001776367560e-04	4.290741983490e-06
193                	1.970951983510e-04	1.836626207860e-05	1.057944799050e-04	1.275493004970e-04	1.888228207630e-04	4.076752653140e-06
194                	1.863574813980e-04	1.740697387230e-05	9.879953958740e-05	1.207687254490e-04	1.781456300030e-04	3.872901322130e-06
195                	1.762217506430e-04	1.650010733430e-05	9.221845396520e-05	1.143610478390e-04	1.681003111900e-04	3.678479618760e-06
196                	1.667029161530e-04	1.564281932820e-05	8.604212803130e-05	1.083044408100e-04	1.586510298580e-04	3.493094640120e-06
197                	1.577464080560e-04	1.483240775270e-05	8.025220455430e-05	1.025788812540e-04	1.497628038980e-04	3.316339315840e-06
198                	1.493326616310e-04	1.406623812840e-05	7.483148594210e-05	9.716668325640e-05	1.413980657010e-04	3.147851811960e-06
199                	1.413857502610e-04	1.334161277130e-05	6.976173651750e-05	9.205166189560e-05	1.335249923140e-04	2.987419066350e-06
200                	1.338895054530e-04	1.265620285040e-05	6.502726174140e-05	8.721840422790e-05	1.261120328560e-04	2.834718580760e-06
201                	1.268292052010e-04	1.200777153240e-05	6.060629536600e-05	8.265136601210e-05	1.191291483580e-04	2.689386623910e-06
202                	1.201670345600e-04	1.139433503080e-05	5.648413722210e-05	7.833570412670e-05	1.125537731910e-04	2.551260494040e-06
203                	1.138802774590e-04	1.081393818210e-05	5.264679345400e-05	7.425652247870e-05	1.063629779650e-04	2.419987889520e-06
204                	1.079402208800e-04	1.026472407450e-05	4.907474885270e-05	7.040024744400e-05	1.005343568480e-04	2.295267677610e-06
205                	1.023257910190e-04	9.744852709920e-06	4.575379939310e-05	6.675461039680e-05	9.504537521590e-05	2.176834526890e-06
