# Residuals        
# Time             	p                  	Ux                 	Uy                 	Uz                 	k                  	epsilon            
1                  	1.000000000000e+00	1.000000000000e+00	1.000000000000e+00	1.000000000000e+00	9.999999999990e-01	1.000000000000e+00
2                  	1.350705016790e-01	6.460859489560e-01	3.370943487850e-01	3.610106112300e-01	4.010172471640e-01	5.518683378090e-01
3                  	3.019286592090e-02	8.736578855850e-01	3.295761874510e-01	3.236760603500e-01	4.936153987460e-01	6.202815138660e-01
4                  	7.422191797220e-02	6.180283059400e-01	4.882388960890e-01	9.744123286750e-02	2.982370950190e-01	4.032612869040e-01
5                  	1.194114123250e-01	3.282733625140e-01	3.088440023200e-01	2.566088075140e-01	8.377795721200e-02	1.097589495760e-01
6                  	5.252171370860e-02	5.757051330470e-01	1.919289586860e-01	4.761654048890e-01	7.392417238560e-02	7.236298864970e-02
7                  	9.281624220940e-02	4.076961631420e-01	4.095337220330e-01	3.746346490090e-01	6.555196136830e-02	7.072642823060e-02
8                  	1.171250484380e-01	1.754919622050e-01	5.618833352190e-01	1.815126350530e-01	4.147179489500e-02	4.085627406130e-02
9                  	5.958499783120e-02	3.361408180880e-01	1.696224154870e-01	2.751310602170e-01	2.513483813830e-02	1.913643213010e-02
10                 	8.614021078980e-02	2.159416139290e-01	4.720342224140e-01	3.624530573900e-01	2.550018696340e-02	2.202603835070e-02
11                 	1.936147903290e-01	1.045318521140e-01	5.981227271000e-01	4.081810171690e-01	2.548452243060e-02	2.554937843580e-02
12                 	7.810385196770e-02	2.238871032840e-01	1.559142984180e-01	3.359505838610e-01	2.435956921320e-02	3.112253604550e-02
13                 	9.978190355170e-02	1.456491246220e-01	4.017964683810e-01	1.776458207700e-01	2.404078805090e-02	3.219726469650e-02
14                 	1.626457620270e-01	5.212004701020e-02	5.605355011440e-01	8.637379178770e-02	1.870248869880e-02	2.384541054140e-02
15                 	7.237123224020e-02	1.015856994340e-01	2.449595530080e-01	1.046108125860e-01	1.253017202710e-02	1.372719675720e-02
16                 	7.956127612840e-02	7.653179965840e-02	3.563761314670e-01	1.271162042180e-01	9.967172026830e-03	1.007772135910e-02
17                 	4.363136579920e-01	2.797319121390e-02	4.925060875010e-01	1.427045338220e-01	9.999470905220e-03	1.084661009900e-02
18                 	1.167168505510e-01	5.739245243410e-02	2.540124230230e-01	1.412249855060e-01	1.090225180680e-02	1.316164679170e-02
19                 	1.286036861050e-01	4.470600433050e-02	2.878177664830e-01	9.448909931240e-02	1.081556897340e-02	1.406925810900e-02
20                 	2.024280463520e-01	1.810708865590e-02	4.452278365780e-01	4.499533637180e-02	9.129351003030e-03	1.211414629570e-02
21                 	7.845791186620e-02	2.937367718520e-02	2.870092046770e-01	3.147254075690e-02	6.972193384170e-03	8.873598313240e-03
22                 	7.419612825190e-02	2.587053650240e-02	2.598703851300e-01	5.194669287860e-02	5.737185678830e-03	6.727703534560e-03
23                 	1.377294947400e-01	1.107614773630e-02	3.819902480410e-01	5.918901855540e-02	5.298618296670e-03	6.020665177700e-03
24                 	3.800107805990e-01	1.488610590150e-02	2.823194771070e-01	5.428218515060e-02	5.240794647180e-03	6.078936969780e-03
25                 	3.171368415220e-01	1.412117803390e-02	2.221904380350e-01	5.114563758770e-02	5.107582423100e-03	6.253546005910e-03
26                 	1.374039531010e-01	8.239990424320e-03	3.524142442570e-01	3.263271616180e-02	4.586969203090e-03	5.680224513290e-03
27                 	7.347257113330e-02	8.810083487630e-03	2.903070493910e-01	1.547845240530e-02	3.868531488510e-03	4.600408367420e-03
28                 	6.069747073300e-02	9.006848837860e-03	2.083275092910e-01	2.115100091030e-02	3.563748656890e-03	3.637713998840e-03
29                 	7.309711321460e-02	5.470304890330e-03	3.003405341640e-01	2.783044837510e-02	3.366049090950e-03	3.138549755240e-03
30                 	1.060621279520e-01	4.624886586400e-03	2.824631965250e-01	2.616317338680e-02	3.116584384170e-03	2.941812296170e-03
31                 	9.840325771360e-02	4.676131050950e-03	1.982219652100e-01	2.333488138690e-02	2.891825803270e-03	2.871418844330e-03
32                 	6.378974625170e-02	3.760176694910e-03	2.672906783570e-01	1.967579110160e-02	2.755304301610e-03	2.636264915890e-03
33                 	4.661899123580e-02	3.482124931490e-03	2.579174246970e-01	1.174638103210e-02	2.732578810650e-03	2.230867411510e-03
34                 	3.845051723070e-02	3.474204532220e-03	1.831879476660e-01	9.507637550530e-03	2.688794908440e-03	1.827207089500e-03
35                 	3.781054324920e-02	2.631379921580e-03	2.143127474800e-01	1.304448352610e-02	2.577297807520e-03	1.563225851670e-03
36                 	4.267056792330e-02	1.892117751530e-03	2.181400414840e-01	1.366566455360e-02	2.429103574940e-03	1.430967364210e-03
37                 	3.877687856160e-02	1.841451718030e-03	1.650332192530e-01	1.180692981840e-02	2.293001592760e-03	1.357954007840e-03
38                 	2.815272582900e-02	1.762733493350e-03	1.767494459650e-01	1.022591271960e-02	2.202148739030e-03	1.259982324660e-03
39                 	2.307510178780e-02	1.601496721830e-03	1.817165340970e-01	7.883847347100e-03	2.139239307620e-03	1.131343725340e-03
40                 	2.049787353730e-02	1.560765024600e-03	1.466551896810e-01	5.649201142000e-03	2.080623943420e-03	1.033579521430e-03
41                 	1.823690867790e-02	1.324250296290e-03	1.324049134240e-01	6.429329632140e-03	2.001625986030e-03	9.684644546430e-04
42                 	1.806953628710e-02	1.018631869230e-03	1.348641798640e-01	7.457381638620e-03	1.910636103150e-03	9.281718033060e-04
43                 	1.774267571690e-02	8.915671409220e-04	1.205286344770e-01	6.950830865220e-03	1.819160418210e-03	9.012290225650e-04
44                 	1.402549011480e-02	8.655557494220e-04	1.072969106850e-01	5.746395626710e-03	1.744710477390e-03	8.855200207380e-04
45                 	1.057723316250e-02	8.487257413060e-04	1.182746908330e-01	4.911757428310e-03	1.681694480360e-03	8.753958918450e-04
46                 	9.778252681100e-03	8.025464410230e-04	1.140735475650e-01	4.022509353150e-03	1.619875730550e-03	8.595033016110e-04
47                 	9.289192653810e-03	7.203454521360e-04	9.948376159520e-02	3.734977576590e-03	1.555178622800e-03	8.347793989370e-04
48                 	8.605868604390e-03	6.118279095740e-04	8.885964024090e-02	4.155279493850e-03	1.486965327350e-03	8.052635816870e-04
49                 	8.057162233110e-03	5.201995481700e-04	8.710791518900e-02	4.231251307640e-03	1.420316951700e-03	7.791875004990e-04
50                 	7.229871279610e-03	4.810544466980e-04	7.976485449210e-02	3.742421399610e-03	1.359769172250e-03	7.579441974220e-04
51                 	5.900560356460e-03	4.720857083200e-04	7.964165639680e-02	3.141850657510e-03	1.303266389030e-03	7.392453042680e-04
52                 	5.126817356270e-03	4.520554394730e-04	8.697039119830e-02	2.770176680880e-03	1.248553016200e-03	7.174650005180e-04
53                 	4.882094590450e-03	4.170826516850e-04	8.282908907410e-02	2.493393613300e-03	1.193776033830e-03	6.910396031920e-04
54                 	4.726301766700e-03	3.725481117910e-04	7.222095603600e-02	2.474810262830e-03	1.138844602670e-03	6.633859892740e-04
55                 	4.378355202400e-03	3.255684202680e-04	6.562783513090e-02	2.554087303250e-03	1.085296294900e-03	6.373101953300e-04
56                 	3.944415475440e-03	2.913038738510e-04	6.729117847780e-02	2.441136364750e-03	1.035382227420e-03	6.138016509690e-04
57                 	3.485266662640e-03	2.762752101440e-04	6.710550264280e-02	2.160561039580e-03	9.885959237850e-04	5.921167673270e-04
58                 	3.092875437640e-03	2.655582856280e-04	7.121629357090e-02	1.886104874530e-03	9.434522382160e-04	5.703954503200e-04
59                 	2.911095120760e-03	2.496145263740e-04	7.480972008650e-02	1.711848996400e-03	8.990090095960e-04	5.468095999690e-04
60                 	2.816324530260e-03	2.292728792660e-04	6.787924745280e-02	1.612621155000e-03	8.551798071240e-04	5.222696834590e-04
61                 	2.734085288310e-03	2.073830497500e-04	5.822255380560e-02	1.573709453950e-03	8.125280921860e-04	4.983531359070e-04
62                 	2.527670241700e-03	1.857496989650e-04	5.415325957240e-02	1.544598765940e-03	7.718185384850e-04	4.764710035630e-04
63                 	2.256476297300e-03	1.693097432830e-04	5.801755500300e-02	1.456743998190e-03	7.334385546560e-04	4.563852481570e-04
64                 	2.010481001610e-03	1.593891324310e-04	6.077255140240e-02	1.320954494110e-03	6.975963688020e-04	4.372266165790e-04
65                 	1.870901275830e-03	1.512845944760e-04	6.375147436860e-02	1.180188652780e-03	6.630750246990e-04	4.178309294750e-04
66                 	1.809090858960e-03	1.419962926980e-04	6.371018672430e-02	1.081398981840e-03	6.293524026210e-04	3.978269586350e-04
67                 	1.777043661560e-03	1.312726577260e-04	5.776033275750e-02	1.018999679810e-03	5.964504440760e-04	3.780588792040e-04
68                 	1.702609932610e-03	1.201176559040e-04	4.874724957980e-02	9.819074620100e-04	5.648845641290e-04	3.594424451520e-04
69                 	1.556490526010e-03	1.092024161700e-04	4.542594385340e-02	9.497597319300e-04	5.352257480090e-04	3.421525107140e-04
70                 	1.399396681800e-03	9.992809814650e-05	4.848357955560e-02	8.931583573640e-04	5.069806646400e-04	3.257749911890e-04
71                 	1.285503586600e-03	9.318910114650e-05	5.125179270400e-02	8.139860471910e-04	4.799161642720e-04	3.098548566340e-04
72                 	1.223047307340e-03	8.799114656690e-05	5.163042919030e-02	7.344537679710e-04	4.539096189670e-04	2.942463095560e-04
73                 	1.189432032550e-03	8.258522257090e-05	4.977252847800e-02	6.763722087550e-04	4.291864080880e-04	2.789876873840e-04
74                 	1.154725636040e-03	7.669998235480e-05	4.470123651620e-02	6.383627194350e-04	4.058588770730e-04	2.644625878470e-04
75                 	1.088624959390e-03	7.062481475090e-05	3.782372599570e-02	6.128823649210e-04	3.837580526250e-04	2.508933711890e-04
76                 	9.980877431730e-04	6.476233604400e-05	3.605451364100e-02	5.863012523550e-04	3.627246154550e-04	2.380605649860e-04
77                 	9.142976278620e-04	5.966326280160e-05	3.894526661670e-02	5.479012892770e-04	3.427691664790e-04	2.257341857540e-04
78                 	8.562151464080e-04	5.554847659650e-05	4.017171299000e-02	5.009057094670e-04	3.236690631280e-04	2.137563366560e-04
79                 	8.180022431050e-04	5.215111223730e-05	3.877166010410e-02	4.560302290240e-04	3.052777171950e-04	2.021931556690e-04
80                 	7.857681439800e-04	4.888283468850e-05	3.649229489530e-02	4.217184004460e-04	2.877411654300e-04	1.911621809850e-04
81                 	7.510878710690e-04	4.556224452990e-05	3.349287768440e-02	3.976403811630e-04	2.713111911640e-04	1.807921658050e-04
82                 	7.051781593450e-04	4.229624438680e-05	3.056923943320e-02	3.789351382840e-04	2.559179321510e-04	1.711071180160e-04
83                 	6.528633656390e-04	3.922569259810e-05	2.972827286670e-02	3.590639613970e-04	2.414225929110e-04	1.619845333890e-04
84                 	6.063806372710e-04	3.642651783450e-05	3.105196991350e-02	3.345749456530e-04	2.277882904130e-04	1.533211595080e-04
85                 	5.709679755120e-04	3.400488632350e-05	3.104144988470e-02	3.073861708720e-04	2.149485919170e-04	1.450490712110e-04
86                 	5.416796111940e-04	3.195291886050e-05	2.958666290880e-02	2.818347492150e-04	2.027179884520e-04	1.371112167650e-04
87                 	5.144653050480e-04	3.012389999900e-05	2.827817820290e-02	2.610345878870e-04	1.912001747150e-04	1.295882604140e-04
88                 	4.882597287880e-04	2.839608032130e-05	2.738557398450e-02	2.450168199310e-04	1.802891346750e-04	1.225187566670e-04
89                 	4.589624642930e-04	2.672767262130e-05	2.619478865330e-02	2.315382509990e-04	1.699534282030e-04	1.159168577050e-04
90                 	4.280063902310e-04	2.511449477180e-05	2.534211280820e-02	2.179987950160e-04	1.601963014310e-04	1.096731911470e-04
91                 	3.997726569640e-04	2.361629654020e-05	2.535981566450e-02	2.031470097310e-04	1.511415582570e-04	1.037759329860e-04
92                 	3.754980064940e-04	2.229204021910e-05	2.510389780120e-02	1.875398997170e-04	1.427224781410e-04	9.824660110370e-05
93                 	3.537667801800e-04	2.115632398560e-05	2.415977938230e-02	1.727146265310e-04	1.348561127510e-04	9.305520896410e-05
94                 	3.336900504130e-04	2.020517310500e-05	2.341304149820e-02	1.598738030870e-04	1.275259927190e-04	8.818973492560e-05
95                 	3.151308848220e-04	1.933899523160e-05	2.305848186200e-02	1.493323777000e-04	1.206043597610e-04	8.360303259540e-05
96                 	2.963535017330e-04	1.853160432530e-05	2.245088541740e-02	1.402611084570e-04	1.140652694940e-04	7.925751685350e-05
97                 	2.772744148470e-04	1.775353414980e-05	2.162162276440e-02	1.316092314650e-04	1.079402076250e-04	7.515184969160e-05
98                 	2.591890032480e-04	1.702399774250e-05	2.103091679660e-02	1.228108685030e-04	1.021802469570e-04	7.131513898810e-05
99                 	2.427898571340e-04	1.636426106020e-05	2.055928476300e-02	1.139213721470e-04	9.682527045610e-05	6.778081961050e-05
100                	2.275053563720e-04	1.585181134140e-05	1.991629507610e-02	1.053978965190e-04	9.193392334100e-05	6.445794661810e-05
101                	2.136265326370e-04	1.541404651670e-05	1.932060519890e-02	9.770683970770e-05	8.746071353060e-05	6.136983068640e-05
102                	2.013695814030e-04	1.502531309600e-05	1.889461155250e-02	9.106402786270e-05	8.331540782170e-05	5.847308047080e-05
103                	1.893640161400e-04	1.472133361090e-05	1.842905669740e-02	8.537938849480e-05	7.939193647280e-05	5.575550373600e-05
104                	1.774120045460e-04	1.443559156970e-05	1.769079480240e-02	8.019052820270e-05	7.571219876190e-05	5.321673669890e-05
105                	1.656844244550e-04	1.414923203400e-05	1.691054622830e-02	7.518012117050e-05	7.234735118740e-05	5.084524514570e-05
106                	1.545210028720e-04	1.387749333260e-05	1.623848590070e-02	7.031804870090e-05	6.928411118240e-05	4.867918757720e-05
107                	1.440248762040e-04	1.364562944740e-05	1.567474930870e-02	6.569688343230e-05	6.651245866400e-05	4.670343021430e-05
108                	1.343878039830e-04	1.346577054000e-05	1.516385028000e-02	6.143122226420e-05	6.402798305380e-05	4.484882463100e-05
109                	1.259453201540e-04	1.330868835960e-05	1.469953718670e-02	5.762602289950e-05	6.170231447630e-05	4.310897351950e-05
110                	1.184590973040e-04	1.313601933240e-05	1.416081316670e-02	5.441509394640e-05	5.956554488020e-05	4.151500198190e-05
111                	1.113053604350e-04	1.294681298770e-05	1.343872280270e-02	5.166590920020e-05	5.768898358340e-05	4.005800403780e-05
112                	1.041360207140e-04	1.275557529420e-05	1.269145682400e-02	4.914309087190e-05	5.603113798830e-05	3.875198095010e-05
113                	9.710053781150e-05	1.257239101900e-05	1.208467730100e-02	4.684167992120e-05	5.455711915120e-05	3.753714043830e-05
114                	9.063481534030e-05	1.239638805210e-05	1.161351333580e-02	4.463739919530e-05	5.325167042060e-05	3.643420541910e-05
115                	8.494914715700e-05	1.222011564950e-05	1.117629549450e-02	4.271045595980e-05	5.214574115010e-05	3.545942660170e-05
116                	7.987568670440e-05	1.203788517190e-05	1.074991069880e-02	4.111490757250e-05	5.117563982760e-05	3.457522090570e-05
117                	7.510709707750e-05	1.185072367530e-05	1.024676096280e-02	3.991164433890e-05	5.030503337100e-05	3.374771498550e-05
118                	7.044615168940e-05	1.165966792930e-05	9.652524381350e-03	3.902635988390e-05	4.943501571220e-05	3.292414401520e-05
119                	6.595326602970e-05	1.146589332360e-05	9.198388127430e-03	3.844489713300e-05	4.854027517450e-05	3.210336259070e-05
120                	6.195386956680e-05	1.127097609960e-05	8.754167713690e-03	3.795642409420e-05	4.762522045640e-05	3.128721623380e-05
121                	5.850228027790e-05	1.107591820660e-05	8.319443620240e-03	3.744983665450e-05	4.669335561580e-05	3.047673761110e-05
122                	5.554281660470e-05	1.087942253040e-05	7.901911795120e-03	3.696252108580e-05	4.574728466090e-05	2.967374209160e-05
123                	5.289444553370e-05	1.067994697370e-05	7.565166936380e-03	3.652538435650e-05	4.479031012470e-05	2.887939576780e-05
124                	5.043944556840e-05	1.047757764880e-05	7.272906336780e-03	3.611474973240e-05	4.382544230090e-05	2.809451522680e-05
125                	4.811909261210e-05	1.027362135520e-05	6.944051158850e-03	3.571946428410e-05	4.285549022610e-05	2.732010598530e-05
126                	4.597061570870e-05	1.006873177100e-05	6.596000929760e-03	3.531192620100e-05	4.188287586580e-05	2.655815691030e-05
127                	4.406383302490e-05	9.863552369980e-06	6.282182702430e-03	3.486258468750e-05	4.090966350040e-05	2.580835062050e-05
128                	4.237219962750e-05	9.657988730080e-06	6.022401535310e-03	3.438680438200e-05	3.993787401230e-05	2.507036008380e-05
129                	4.088742011870e-05	9.452649442800e-06	5.809854496220e-03	3.390268901180e-05	3.896942498460e-05	2.434483611010e-05
130                	3.954926393990e-05	9.247561226960e-06	5.618822797650e-03	3.342785273770e-05	3.800622259740e-05	2.363283582980e-05
131                	3.831281606090e-05	9.042586094710e-06	5.423033438590e-03	3.296815276950e-05	3.705003622060e-05	2.293511893280e-05
132                	3.714487745510e-05	8.837870252800e-06	5.220478770500e-03	3.250411378330e-05	3.610212957620e-05	2.225096942500e-05
133                	3.602262153150e-05	8.633676772200e-06	5.041729576220e-03	3.202766916850e-05	3.516398710050e-05	2.158049958120e-05
134                	3.496700006430e-05	8.431404299720e-06	4.887451746210e-03	3.154249370450e-05	3.423621776260e-05	2.092402735630e-05
135                	3.401395877730e-05	8.231492526870e-06	4.756927337400e-03	3.106048713090e-05	3.331979946930e-05	2.028188131730e-05
136                	3.315149138850e-05	8.033483172320e-06	4.640907577060e-03	3.058847118050e-05	3.241565385910e-05	1.965437074740e-05
137                	3.236208223270e-05	7.837101015620e-06	4.530295883640e-03	3.013523751260e-05	3.152457799770e-05	1.904265391410e-05
138                	3.162142254910e-05	7.642481988850e-06	4.422001091930e-03	2.971509002840e-05	3.064729568230e-05	1.844586116010e-05
139                	3.088344662800e-05	7.450029812780e-06	4.317512260540e-03	2.931353440390e-05	2.978444170190e-05	1.786367983140e-05
140                	3.016296474660e-05	7.260065822540e-06	4.222396077260e-03	2.890609776660e-05	2.893667786740e-05	1.729649887930e-05
141                	2.945980437940e-05	7.072821489600e-06	4.125696218180e-03	2.847767609690e-05	2.810441969890e-05	1.674344468680e-05
142                	2.877378145490e-05	6.888357298550e-06	4.051931854690e-03	2.803027667230e-05	2.728790262920e-05	1.620444545820e-05
143                	2.810687173790e-05	6.706749434760e-06	3.991198430090e-03	2.756937188410e-05	2.648744430490e-05	1.567942101340e-05
144                	2.745380265860e-05	6.527908629390e-06	3.929880508600e-03	2.709780023290e-05	2.570334036690e-05	1.516828865480e-05
145                	2.681551158900e-05	6.351985502010e-06	3.861878249930e-03	2.661664306260e-05	2.493597001880e-05	1.467096703900e-05
146                	2.619631738950e-05	6.179134809330e-06	3.791899383960e-03	2.612517934050e-05	2.418553911000e-05	1.418739674020e-05
147                	2.558993518700e-05	6.009488201250e-06	3.728215588890e-03	2.562355359410e-05	2.345178212000e-05	1.371768985620e-05
148                	2.499546734600e-05	5.843079795760e-06	3.673506677990e-03	2.511389388610e-05	2.273476841520e-05	1.326218561840e-05
149                	2.441292488050e-05	5.679845550050e-06	3.624852339230e-03	2.459886848900e-05	2.203451277670e-05	1.282009907830e-05
150                	2.384741259890e-05	5.519769831540e-06	3.576913925580e-03	2.408089448860e-05	2.135103194170e-05	1.239108177240e-05
151                	2.329813144610e-05	5.362859546410e-06	3.526977140340e-03	2.356137852260e-05	2.068438836210e-05	1.197441901580e-05
152                	2.276068144380e-05	5.209115876570e-06	3.476373482170e-03	2.304078373820e-05	2.003437531520e-05	1.156989895950e-05
153                	2.222979101850e-05	5.058539549620e-06	3.427441931110e-03	2.251941957150e-05	1.940079318870e-05	1.117729715340e-05
154                	2.170300639600e-05	4.911140650890e-06	3.381452006640e-03	2.199807375160e-05	1.878350188080e-05	1.079638425310e-05
155                	2.118060046660e-05	4.766936231840e-06	3.337592788180e-03	2.147805040610e-05	1.818236611870e-05	1.042693945450e-05
156                	2.066415654340e-05	4.625935823150e-06	3.294115690540e-03	2.096074867330e-05	1.759720576460e-05	1.006879266700e-05
157                	2.015628503110e-05	4.488122770720e-06	3.249906385870e-03	2.044722102380e-05	1.702784390170e-05	9.721738596990e-06
158                	1.965616541320e-05	4.353474111930e-06	3.204811533040e-03	1.993805395200e-05	1.647411576610e-05	9.385554024660e-06
159                	1.916303292080e-05	4.221943397940e-06	3.172951817960e-03	1.943357467250e-05	1.593594262520e-05	9.060201395850e-06
160                	1.867859956330e-05	4.093573074500e-06	3.125071917340e-03	1.893419029700e-05	1.541291324780e-05	8.745773670960e-06
161                	1.820212169820e-05	3.968340742260e-06	3.069241476540e-03	1.844037059830e-05	1.490468835850e-05	8.441704812000e-06
162                	1.773198025810e-05	3.846189698270e-06	3.017176714870e-03	1.795269308310e-05	1.441103091400e-05	8.147237724290e-06
163                	1.726829233010e-05	3.727075526270e-06	2.973467490670e-03	1.747176891250e-05	1.393174160630e-05	7.862141713070e-06
164                	1.681200910960e-05	3.610972085910e-06	2.933829466090e-03	1.699809043660e-05	1.346651521420e-05	7.586184181610e-06
165                	1.636246419860e-05	3.497861893800e-06	2.891339173600e-03	1.653194043580e-05	1.301497765970e-05	7.319126912700e-06
166                	1.592215820960e-05	3.387712804350e-06	2.843507524010e-03	1.607344539010e-05	1.257684951190e-05	7.060733306460e-06
167                	1.549258424880e-05	3.280474031200e-06	2.792811561860e-03	1.562272518250e-05	1.215184632600e-05	6.810771548070e-06
168                	1.506993754080e-05	3.176091897540e-06	2.743115456180e-03	1.517999773780e-05	1.173968683390e-05	6.569041040440e-06
169                	1.465446875130e-05	3.074542730490e-06	2.687814324780e-03	1.474554039440e-05	1.134007978140e-05	6.335314613340e-06
170                	1.424605783770e-05	2.975740073430e-06	2.643614721440e-03	1.431959030720e-05	1.095275743640e-05	6.109418141090e-06
171                	1.384430288410e-05	2.879651016920e-06	2.603322311550e-03	1.390230098730e-05	1.057742852130e-05	5.891131408620e-06
172                	1.344975791830e-05	2.786255578900e-06	2.558475442850e-03	1.349372299290e-05	1.021382546480e-05	5.680271908290e-06
173                	1.306340658960e-05	2.695510649760e-06	2.506980365200e-03	1.309382558900e-05	9.861703993720e-06	5.476784278370e-06
174                	1.268533385840e-05	2.607349794410e-06	2.453083564700e-03	1.270258405700e-05	9.520821243750e-06	5.280549218370e-06
175                	1.231527148060e-05	2.521705537780e-06	2.401632019050e-03	1.232004471460e-05	9.190808464260e-06	5.091082586400e-06
176                	1.195303992310e-05	2.438525520600e-06	2.353804834060e-03	1.194629550820e-05	8.871350043990e-06	4.908055814030e-06
177                	1.159853916840e-05	2.357771342440e-06	2.307307584420e-03	1.158138073830e-05	8.562204482450e-06	4.731287377100e-06
178                	1.125172758930e-05	2.279399700000e-06	2.259530439430e-03	1.122524729090e-05	8.263081457220e-06	4.560573340400e-06
179                	1.091280109150e-05	2.203356500850e-06	2.209856242830e-03	1.087778352680e-05	7.973645392980e-06	4.395718452200e-06
180                	1.058179688130e-05	2.129582573230e-06	2.159576341470e-03	1.053888964680e-05	7.693630615970e-06	4.236550744640e-06
181                	1.025855722150e-05	2.058023042040e-06	2.110225821710e-03	1.020850715630e-05	7.422775561940e-06	4.082898238490e-06
182                	9.942911308470e-06	1.988627689500e-06	2.062275281020e-03	9.886596272180e-06	7.160823834610e-06	3.934563275990e-06
183                	9.634826826110e-06	1.921349651790e-06	2.015129687020e-03	9.573092978010e-06	6.907524000030e-06	3.791379360410e-06
184                	9.334328631950e-06	1.856139661980e-06	1.967969391630e-03	9.267884708450e-06	6.662628782590e-06	3.653184108730e-06
185                	9.041449588470e-06	1.792945452250e-06	1.920587301490e-03	8.970831643630e-06	6.425894711920e-06	3.519843327850e-06
186                	8.756121569980e-06	1.731713482350e-06	1.873367782930e-03	8.681799919410e-06	6.197082541740e-06	3.391182654820e-06
187                	8.478260403300e-06	1.672393543040e-06	1.826787372470e-03	8.400674532500e-06	5.975960517770e-06	3.267067926650e-06
188                	8.207699427310e-06	1.614937531070e-06	1.781078691330e-03	8.127346908510e-06	5.762299466190e-06	3.147363464240e-06
189                	7.944314778360e-06	1.559297658630e-06	1.736100836930e-03	7.861696138300e-06	5.555881354260e-06	3.031940233770e-06
190                	7.688018324730e-06	1.505426141590e-06	1.691607806980e-03	7.603582720100e-06	5.356484270320e-06	2.920670037920e-06
191                	7.438733760590e-06	1.453275175380e-06	1.647527043970e-03	7.352856713970e-06	5.163898891910e-06	2.813409198150e-06
192                	7.196366352580e-06	1.402798511400e-06	1.603944432440e-03	7.109369384000e-06	4.977916024550e-06	2.710062604040e-06
193                	6.960831961170e-06	1.353950384960e-06	1.561045713840e-03	6.872977926680e-06	4.798340378330e-06	2.610419995760e-06
194                	6.731993378590e-06	1.306685524570e-06	1.518921856690e-03	6.643542111700e-06	4.624981625300e-06	2.514352490110e-06
195                	6.509728905370e-06	1.260960052980e-06	1.477545925040e-03	6.420918693640e-06	4.457651935700e-06	2.421731729600e-06
196                	6.293896677890e-06	1.216730206440e-06	1.436855714800e-03	6.204959223510e-06	4.296153067670e-06	2.332414967260e-06
197                	6.084361241160e-06	1.173953263060e-06	1.396826181620e-03	5.995512053600e-06	4.140284603680e-06	2.246291558710e-06
198                	5.881010529790e-06	1.132587143100e-06	1.357473650320e-03	5.792426074150e-06	3.989847037390e-06	2.163254710130e-06
199                	5.683707365220e-06	1.092591012420e-06	1.318847483620e-03	5.595551945870e-06	3.844655036110e-06	2.083204855700e-06
200                	5.492315314990e-06	1.053924508800e-06	1.281001316280e-03	5.404742666000e-06	3.704540741320e-06	2.006040890340e-06
201                	5.306696911120e-06	1.016548492640e-06	1.243935666490e-03	5.219851950030e-06	3.569341518790e-06	1.931671578030e-06
202                	5.126736803620e-06	9.804245580800e-07	1.207642748390e-03	5.040734026820e-06	3.438896774140e-06	1.859987701100e-06
203                	4.952291539340e-06	9.455150487690e-07	1.172100523860e-03	4.867242715360e-06	3.313051373290e-06	1.790890902460e-06
204                	4.783230704200e-06	9.117831519030e-07	1.137309020700e-03	4.699232930540e-06	3.191652037070e-06	1.724292502600e-06
205                	4.619417949000e-06	8.791930243590e-07	1.103277673580e-03	4.536561962010e-06	3.074551442110e-06	1.660106550890e-06
206                	4.460729786180e-06	8.477096638930e-07	1.070018617030e-03	4.379088967360e-06	2.961607418910e-06	1.598251875130e-06
207                	4.307032708310e-06	8.172990099690e-07	1.037535931860e-03	4.226675155420e-06	2.852679154170e-06	1.538646805750e-06
208                	4.158198245100e-06	7.879280013050e-07	1.005822378250e-03	4.079183720950e-06	2.747632873730e-06	1.481211762880e-06
209                	4.014112176710e-06	7.595643011600e-07	9.748648150750e-04	3.936478380910e-06	2.646336852850e-06	1.425873406740e-06
210                	3.874646021600e-06	7.321760105310e-07	9.446578768470e-04	3.798425942270e-06	2.548664944460e-06	1.372558361100e-06
211                	3.739680611910e-06	7.057322574550e-07	9.151939615470e-04	3.664895378770e-06	2.454495446100e-06	1.321196941730e-06
212                	3.609088519250e-06	6.802031644910e-07	8.864709605650e-04	3.535758114860e-06	2.363709847070e-06	1.271721023850e-06
213                	3.482739985220e-06	6.555593729720e-07	8.584852592550e-04	3.410888153820e-06	2.276191704980e-06	1.224061635780e-06
214                	3.360519325870e-06	6.317724454080e-07	8.312295481250e-04	3.290162022390e-06	2.191829704920e-06	1.178155965770e-06
215                	3.242312740270e-06	6.088147786300e-07	8.046912473240e-04	3.173458669750e-06	2.110513519090e-06	1.133941741250e-06
216                	3.127995379100e-06	5.866593851810e-07	7.788608398010e-04	3.060659411370e-06	2.032139039520e-06	1.091361886830e-06
217                	3.017456670290e-06	5.652801405630e-07	7.537275620070e-04	2.951647977290e-06	1.956602754790e-06	1.050355982140e-06
218                	2.910587198220e-06	5.446516568780e-07	7.292804009910e-04	2.846310632310e-06	1.883807211340e-06	1.010873888730e-06
219                	2.807279638900e-06	5.247493015060e-07	7.055089786700e-04	2.744536264350e-06	1.813656965290e-06	9.728617783360e-07
220                	2.707429460930e-06	5.055489856990e-07	6.824018508820e-04	2.646216373200e-06	1.746060185630e-06	9.362592891080e-07
221                	2.610934924420e-06	4.870274715980e-07	6.599487478040e-04	2.551245017540e-06	1.680927130620e-06	9.010221598110e-07
222                	2.517693885840e-06	4.691622145020e-07	6.381362766300e-04	2.459518758680e-06	1.618171979560e-06	8.670985518230e-07