# vtk DataFile Version 2.0
sampleSurface
ASCII
DATASET POLYDATA
POINTS 961 double
581321 4785370 1100
581353.375 4785370 1100
581385.625 4785370 1100
581417.75 4785370 1100
581449.875 4785370 1100
581482.125 4785370 1100
581514.4375 4785370 1100
581546.75 4785370 1100
581579 4785370 1100
581611.1875 4785370 1100
581643.4375 4785370 1100
581675.6875 4785370 1100
581707.8125 4785370 1100
581740.0625 4785370 1100
581772.5 4785370 1100
581805 4785370 1100
581837.6875 4785370 1100
581870.375 4785370 1100
581902.875 4785370 1100
581935.4375 4785370 1100
581967.75 4785370 1100
581999.875 4785370 1100
582032.125 4785370 1100
582064.5625 4785370 1100
582096.875 4785370 1100
582129 4785370 1100
582161.1875 4785370 1100
582193.4375 4785370 1100
582225.6875 4785370 1100
582258 4785370 1100
582290 4785370 1100
581321 4785399 1100
581353.375 4785399 1100
581385.625 4785398.5 1100
581417.6875 4785398.5 1100
581449.875 4785398.5 1100
581482.125 4785398.5 1100
581514.375 4785398.5 1100
581546.6875 4785398.5 1100
581578.875 4785398 1100
581611.0625 4785398 1100
581643.25 4785397.5 1100
581675.25 4785397 1100
581707.375 4785396.5 1100
581739.75 4785396 1100
581772.3125 4785395.5 1100
581804.9375 4785395 1100
581837.875 4785395 1100
581870.5625 4785395.5 1100
581903 4785396.5 1100
581935.5625 4785396.5 1100
581968.0625 4785396.5 1100
582000.3125 4785397 1100
582032.4375 4785397.5 1100
582064.8125 4785398 1100
582097.0625 4785398.5 1100
582129.0625 4785398.5 1100
582161.1875 4785398.5 1100
582193.4375 4785398.5 1100
582225.75 4785398.5 1100
582258 4785398.5 1100
582290 4785398.5 1100
581321 4785428 1100
581353.25 4785428 1100
581385.5 4785427.5 1100
581417.625 4785427.5 1100
581449.875 4785427.5 1100
581482.0625 4785427.5 1100
581514.3125 4785427.5 1100
581546.5 4785427.5 1100
581578.6875 4785427 1100
581610.6875 4785426.5 1100
581642.625 4785425.5 1100
581674.5 4785424.5 1100
581706.875 4785424.5 1100
581739.625 4785424 1100
581772.5 4785424 1100
581805.125 4785424 1100
581838.0625 4785424 1100
581870.75 4785424.5 1100
581903.1875 4785425 1100
581935.6875 4785425.5 1100
581968.25 4785425.5 1100
582000.625 4785426 1100
582032.875 4785426.5 1100
582065.1875 4785427 1100
582097.375 4785427 1100
582129.3125 4785427.5 1100
582161.25 4785427.5 1100
582193.4375 4785427.5 1100
582225.6875 4785427.5 1100
582258 4785427.5 1100
582290 4785427.5 1100
581321 4785457 1100
581353.125 4785457 1100
581385.375 4785456.5 1100
581417.5625 4785456.5 1100
581449.8125 4785456.5 1100
581482 4785456.5 1100
581514.125 4785456.5 1100
581546.25 4785456 1100
581578.1875 4785455.5 1100
581610.3125 4785455 1100
581641.875 4785454 1100
581673.9375 4785453 1100
581706.6875 4785453 1100
581739.3125 4785453 1100
581772.4375 4785453 1100
581805.25 4785453 1100
581838.375 4785453 1100
581871 4785453.5 1100
581903.5625 4785454 1100
581936 4785454.5 1100
581968.4375 4785454.5 1100
582000.8125 4785454.5 1100
582033.25 4785455 1100
582065.625 4785455.5 1100
582097.75 4785456 1100
582129.5625 4785456 1100
582161.375 4785456.5 1100
582193.5 4785456.5 1100
582225.6875 4785456.5 1100
582257.9375 4785456.5 1100
582290 4785456.5 1100
581321 4785486 1100
581353 4785486 1100
581385.25 4785485.5 1100
581417.5 4785485.5 1100
581449.75 4785485.5 1100
581481.875 4785485.5 1100
581513.875 4785485 1100
581545.8125 4785484.5 1100
581577.75 4785484 1100
581609.375 4785483.5 1100
581643.875 4785486 1100
581676.1875 4785486 1100
581708.625 4785486 1100
581739.4375 4785482 1100
581772.25 4785482 1100
581805.25 4785482 1100
581838.4375 4785482 1100
581871.3125 4785482.5 1100
581903.875 4785482.5 1100
581936.3125 4785483 1100
581968.6875 4785483 1100
582001.125 4785483 1100
582033.75 4785483.5 1100
582066.0625 4785484.5 1100
582098.125 4785484.5 1100
582129.9375 4785485 1100
582161.625 4785485.5 1100
582193.625 4785485.5 1100
582225.6875 4785485.5 1100
582257.9375 4785485.5 1100
582290 4785485.5 1100
581321 4785515 1100
581352.875 4785514.5 1100
581385.1875 4785514.5 1100
581417.4375 4785514.5 1100
581449.625 4785514.5 1100
581481.75 4785514.5 1100
581513.5 4785514 1100
581545.25 4785513.5 1100
581577.4375 4785513 1100
581609.75 4785513 1100
581644 4785515 1100
581676.3125 4785515 1100
581708.625 4785515 1100
581739.375 4785511 1100
581772.0625 4785511 1100
581805.3125 4785511 1100
581838.625 4785511 1100
581871.6875 4785511.5 1100
581904.25 4785512 1100
581936.625 4785512 1100
581968.875 4785512.5 1100
582001.3125 4785512.5 1100
582034.0625 4785513 1100
582066.4375 4785513 1100
582098.375 4785513.5 1100
582130.3125 4785514 1100
582162 4785514.5 1100
582193.8125 4785514.5 1100
582225.75 4785514.5 1100
582257.9375 4785514.5 1100
582290 4785514.5 1100
581321 4785543.5 1100
581352.875 4785543.5 1100
581385.125 4785543.5 1100
581417.3125 4785543.5 1100
581449.5 4785543.5 1100
581481.5 4785543 1100
581512.75 4785542.5 1100
581544.3125 4785542 1100
581576.25 4785541.5 1100
581609.9375 4785542.5 1100
581642.4375 4785542.5 1100
581676.3125 4785544 1100
581706.3125 4785540 1100
581738.9375 4785540 1100
581772.0625 4785540 1100
581805.5625 4785540 1100
581839 4785540.5 1100
581872 4785541 1100
581904.625 4785541.5 1100
581936.9375 4785541.5 1100
581969.0625 4785542 1100
582001.5 4785542.5 1100
582034.125 4785542.5 1100
582066.5625 4785542.5 1100
582098.625 4785543 1100
582130.625 4785543 1100
582162.3125 4785543.5 1100
582193.9375 4785543.5 1100
582225.8125 4785543.5 1100
582258 4785543.5 1100
582290 4785543.5 1100
581321 4785572.5 1100
581352.8125 4785572.5 1100
581385.0625 4785572.5 1100
581417.25 4785572.5 1100
581449.3125 4785572.5 1100
581481.125 4785572 1100
581512.1875 4785571.5 1100
581543.1875 4785571 1100
581575.3125 4785570.5 1100
581608.875 4785571 1100
581641.4375 4785570.5 1100
581676.3125 4785573 1100
581705.625 4785569 1100
581738.8125 4785569 1100
581772.3125 4785569 1100
581806.125 4785569.5 1100
581839.5625 4785570 1100
581872.4375 4785570.5 1100
581905.0625 4785571 1100
581937.375 4785571.5 1100
581969.5 4785572.5 1100
582001.875 4785573 1100
582034.1875 4785573 1100
582066.375 4785573 1100
582098.5 4785572.5 1100
582130.5625 4785572 1100
582162.3125 4785572.5 1100
582193.9375 4785572.5 1100
582225.875 4785572.5 1100
582258.0625 4785572.5 1100
582290 4785573 1100
581321 4785601.5 1100
581352.8125 4785601.5 1100
581385 4785601.5 1100
581417.1875 4785601.5 1100
581449.0625 4785601.5 1100
581480.5625 4785601 1100
581512.0625 4785600.5 1100
581543.0625 4785600 1100
581575.75 4785600 1100
581609.1875 4785600.5 1100
581641.5 4785600 1100
581676.3125 4785602 1100
581707.25 4785600.5 1100
581740.9375 4785602 1100
581772.6875 4785599 1100
581806.8125 4785599.5 1100
581840.1875 4785600 1100
581873 4785601 1100
581905.875 4785601.5 1100
581938.0625 4785602.5 1100
581970.125 4785603 1100
582002.125 4785603.5 1100
582034.1875 4785603.5 1100
582066.125 4785603 1100
582098.125 4785602.5 1100
582130.1875 4785602 1100
582162.1875 4785601.5 1100
582193.875 4785601.5 1100
582225.9375 4785601.5 1100
582258.1875 4785602 1100
582290 4785602 1100
581321 4785630.5 1100
581352.75 4785630.5 1100
581384.9375 4785630.5 1100
581417.0625 4785630.5 1100
581448.8125 4785630.5 1100
581480 4785630 1100
581511.625 4785629.5 1100
581543.0625 4785629.5 1100
581575.6875 4785629.5 1100
581608.8125 4785629.5 1100
581644 4785631 1100
581676.375 4785631 1100
581708.625 4785631 1100
581740.9375 4785631 1100
581773.25 4785629.5 1100
581807.5625 4785630.5 1100
581840.9375 4785631 1100
581873.75 4785631.5 1100
581906.5 4785632 1100
581938.375 4785632.5 1100
581969.3125 4785632.5 1100
582002.0625 4785632.5 1100
582034.0625 4785632.5 1100
582065.875 4785632.5 1100
582097.875 4785632 1100
582129.75 4785631.5 1100
582161.9375 4785631 1100
582193.8125 4785631 1100
582225.9375 4785631 1100
582258.25 4785631 1100
582290 4785631 1100
581321 4785660 1100
581352.6875 4785659.5 1100
581384.875 4785659.5 1100
581416.9375 4785659.5 1100
581448.625 4785659 1100
581479.5 4785658.5 1100
581510.8125 4785658.5 1100
581542.875 4785658.5 1100
581575.625 4785658.5 1100
581611.75 4785660 1100
581644.0625 4785660 1100
581676.375 4785660 1100
581708.625 4785660 1100
581740.9375 4785660 1100
581773.625 4785662 1100
581807.625 4785661.5 1100
581841.125 4785661 1100
581874.1875 4785661 1100
581907 4785661.5 1100
581937.5 4785661 1100
581968.75 4785661 1100
582001.75 4785661.5 1100
582033.625 4785661 1100
582065.375 4785661 1100
582097.625 4785660.5 1100
582129.5625 4785660 1100
582161.875 4785660 1100
582193.8125 4785659.5 1100
582226 4785660 1100
582258.25 4785660 1100
582290 4785660 1100
581321 4785689 1100
581352.5625 4785689 1100
581384.75 4785688.5 1100
581416.75 4785688.5 1100
581448.375 4785688 1100
581479.5 4785687.5 1100
581510.6875 4785687.5 1100
581542.8125 4785687.5 1100
581575.75 4785687.5 1100
581608.1875 4785687.5 1100
581644.0625 4785689 1100
581676.3125 4785689 1100
581708.1875 4785689.5 1100
581740.6875 4785691.5 1100
581773.5625 4785691.5 1100
581807.3125 4785691.5 1100
581840.75 4785691 1100
581873.8125 4785690.5 1100
581904.875 4785689.5 1100
581937.375 4785689.5 1100
581967 4785689 1100
582001.5625 4785689.5 1100
582033.375 4785689.5 1100
582065 4785689 1100
582097.375 4785689 1100
582129.5 4785688.5 1100
582161.8125 4785688.5 1100
582193.9375 4785689 1100
582226.125 4785689 1100
582258.3125 4785689 1100
582290 4785689 1100
581321 4785717.5 1100
581352.5 4785718 1100
581384.625 4785717.5 1100
581416.5 4785717.5 1100
581448 4785717 1100
581479.3125 4785716.5 1100
581510.75 4785716.5 1100
581542.9375 4785716.5 1100
581579.25 4785718 1100
581608.1875 4785716.5 1100
581640.9375 4785717 1100
581675 4785718 1100
581709.125 4785719 1100
581741.3125 4785720 1100
581773.625 4785720.5 1100
581806.9375 4785720.5 1100
581840.125 4785720 1100
581872.5625 4785718.5 1100
581906.375 4785716.5 1100
581938.375 4785716.5 1100
581970.1875 4785717 1100
582001.8125 4785717 1100
582033.5 4785717 1100
582064.8125 4785717 1100
582097.1875 4785717 1100
582129.625 4785717 1100
582162 4785717.5 1100
582194.25 4785718 1100
582226.25 4785718 1100
[...]
CELL_DATA 1800
FIELD attributes 1
U 3 1800 float
13.9480161667 -0.00732177728787 0.109111592174
13.9480161667 -0.00732177728787 0.109111592174
13.9747905731 -0.0148626118898 0.227318868041
13.9747905731 -0.0148626118898 0.227318868041
14.0243587494 -0.0222470760345 0.343193620443
14.0243587494 -0.0222470760345 0.343193620443
14.0961027145 -0.0297514609993 0.456359505653
14.0961027145 -0.0297514609993 0.456359505653
14.1907110214 -0.0374306440353 0.564937770367
14.1907110214 -0.0374306440353 0.564937770367
14.3096008301 -0.0449160076678 0.666658341885
14.3096008301 -0.0449160076678 0.666658341885
14.4530220032 -0.0515756085515 0.758233547211
14.4530220032 -0.0515756085515 0.758233547211
14.6208314896 -0.0567584633827 0.835921823978
14.6208314896 -0.0567584633827 0.835921823978
14.8098688126 -0.0596905946732 0.895180642605
14.8098688126 -0.0596905946732 0.895180642605
15.0167722702 -0.0592385716736 0.930150926113
15.0167722702 -0.0592385716736 0.930150926113
15.2330789566 -0.0538013726473 0.934443235397
15.2330789566 -0.0538013726473 0.934443235397
15.4471654892 -0.0436608828604 0.90155684948
15.4471654892 -0.0436608828604 0.90155684948
15.6425733566 -0.028870491311 0.826430797577
15.6425733566 -0.028870491311 0.826430797577
15.8000707626 -0.0105470111594 0.708448171616
15.8000707626 -0.0105470111594 0.708448171616
15.8962554932 0.0101698189974 0.557136952877
15.8962554932 0.0101698189974 0.557136952877
15.9194278717 0.0311036426574 0.388895720243
15.9194278717 0.0311036426574 0.388895720243
15.8700485229 0.0493554957211 0.225428715348
15.8700485229 0.0493554957211 0.225428715348
15.7664470673 0.0629713088274 0.0855982750654
15.7664470673 0.0629713088274 0.0855982750654
15.6303272247 0.0693619176745 -0.023240705952
15.6303272247 0.0693619176745 -0.023240705952
15.4798898697 0.0719797462225 -0.102449044585
15.4798898697 0.0719797462225 -0.102449044585
15.3291358948 0.0724403038621 -0.154269143939
15.3291358948 0.0724403038621 -0.154269143939
15.1863994598 0.0703226998448 -0.184295639396
15.1863994598 0.0703226998448 -0.184295639396
15.0550642014 0.065831258893 -0.196352213621
15.0550642014 0.065831258893 -0.196352213621
14.939163208 0.0605448037386 -0.192764863372
14.939163208 0.0605448037386 -0.192764863372
14.8412771225 0.0550736449659 -0.178651362658
14.8412771225 0.0550736449659 -0.178651362658
14.7607154846 0.0498671159148 -0.159527853131
14.7607154846 0.0498671159148 -0.159527853131
14.6952171326 0.0453452318907 -0.139212861657
14.6952171326 0.0453452318907 -0.139212861657
14.6418905258 0.041794102639 -0.120726451278
14.6418905258 0.041794102639 -0.120726451278
14.5990581512 0.039240591228 -0.107007414103
14.5990581512 0.039240591228 -0.107007414103
14.5471544266 0.0372520200908 -0.101787216961
14.5471544266 0.0372520200908 -0.101787216961
13.947429657 -0.0209934599698 0.11237950623
13.947429657 -0.0209934599698 0.11237950623
13.9739494324 -0.0433277338743 0.234357580543
13.9739494324 -0.0433277338743 0.234357580543
14.0231237411 -0.0654099658132 0.354090481997
14.0231237411 -0.0654099658132 0.354090481997
14.0943336487 -0.0876851305366 0.471275597811
14.0943336487 -0.0876851305366 0.471275597811
14.1883764267 -0.110266491771 0.584315001965
14.1883764267 -0.110266491771 0.584315001965
14.3068971634 -0.132457897067 0.69096159935
14.3068971634 -0.132457897067 0.69096159935
14.4512577057 -0.152932941914 0.788148999214
14.4512577057 -0.152932941914 0.788148999214
14.6214427948 -0.169077947736 0.87128919363
14.6214427948 -0.169077947736 0.87128919363
14.8141336441 -0.176662296057 0.935215473175
14.8141336441 -0.176662296057 0.935215473175
15.0251731873 -0.174704119563 0.973492145538
15.0251731873 -0.174704119563 0.973492145538
15.2472076416 -0.160480812192 0.978044271469
15.2472076416 -0.160480812192 0.978044271469
15.4721393585 -0.133186161518 0.940455377102
15.4721393585 -0.133186161518 0.940455377102
15.6804275513 -0.0903547480702 0.85544860363
15.6804275513 -0.0903547480702 0.85544860363
15.8473205566 -0.0336496941745 0.723162710667
15.8473205566 -0.0336496941745 0.723162710667
15.9467992783 0.0318866670132 0.554987370968
15.9467992783 0.0318866670132 0.554987370968
15.9662504196 0.0979079455137 0.369431763887
15.9662504196 0.0979079455137 0.369431763887
15.909576416 0.152021020651 0.192714467645
15.909576416 0.152021020651 0.192714467645
15.7976665497 0.189253851771 0.0446096174419
15.7976665497 0.189253851771 0.0446096174419
15.6520853043 0.208757698536 -0.0711951926351
15.6520853043 0.208757698536 -0.0711951926351
15.493680954 0.21508872509 -0.154287412763
15.493680954 0.21508872509 -0.154287412763
15.3368558884 0.212615802884 -0.206856146455
15.3368558884 0.212615802884 -0.206856146455
15.1900253296 0.20319634676 -0.234945952892
15.1900253296 0.20319634676 -0.234945952892
15.0561923981 0.190141230822 -0.244437545538
15.0561923981 0.190141230822 -0.244437545538
14.9390773773 0.175768062472 -0.238285496831
14.9390773773 0.175768062472 -0.238285496831
14.8405637741 0.161078885198 -0.221137806773
14.8405637741 0.161078885198 -0.221137806773
14.7601289749 0.146649703383 -0.198630273342
14.7601289749 0.146649703383 -0.198630273342
14.6953201294 0.133806377649 -0.175262466073
14.6953201294 0.133806377649 -0.175262466073
14.6431245804 0.123612999916 -0.154503703117
14.6431245804 0.123612999916 -0.154503703117
14.6013069153 0.116132333875 -0.139124289155
14.6013069153 0.116132333875 -0.139124289155
14.5515794754 0.110826924443 -0.132617264986
14.5515794754 0.110826924443 -0.132617264986
13.9474029541 -0.033141836524 0.118281766772
13.9474029541 -0.033141836524 0.118281766772
13.9738302231 -0.0693224817514 0.246906712651
13.9738302231 -0.0693224817514 0.246906712651
14.0226917267 -0.105331450701 0.373502254486
14.0226917267 -0.105331450701 0.373502254486
14.0931720734 -0.141665056348 0.497924000025
14.0931720734 -0.141665056348 0.497924000025
14.1862468719 -0.178425863385 0.619008719921
14.1862468719 -0.178425863385 0.619008719921
14.3044071198 -0.214933082461 0.734752595425
14.3044071198 -0.214933082461 0.734752595425
14.4502544403 -0.248943626881 0.841875910759
14.4502544403 -0.248943626881 0.841875910759
14.624710083 -0.274969577789 0.934442281723
14.624710083 -0.274969577789 0.934442281723
14.8190832138 -0.289260655642 1.00874745846
14.8190832138 -0.289260655642 1.00874745846
15.0397920609 -0.285393625498 1.05271482468
15.0397920609 -0.285393625498 1.05271482468
15.2775011063 -0.262535393238 1.05489289761
15.2775011063 -0.262535393238 1.05489289761
15.5226202011 -0.208835780621 1.00955045223
15.5226202011 -0.208835780621 1.00955045223
15.7507591248 -0.13486020267 0.908522367477
15.7507591248 -0.13486020267 0.908522367477
15.9342374802 -0.0399405732751 0.751312732697
15.9342374802 -0.0399405732751 0.751312732697
16.038482666 0.0707626417279 0.549956858158
16.038482666 0.0707626417279 0.549956858158
16.049079895 0.180247068405 0.330738037825
16.049079895 0.180247068405 0.330738037825
15.9747972488 0.26792833209 0.129592642188
15.9747972488 0.26792833209 0.129592642188
15.8427753448 0.326104313135 -0.033677212894
15.8427753448 0.326104313135 -0.033677212894
15.679271698 0.354894310236 -0.156096190214
15.679271698 0.354894310236 -0.156096190214
15.5069904327 0.360093861818 -0.239917695522
15.5069904327 0.360093861818 -0.239917695522
15.3410577774 0.350299239159 -0.289061546326
15.3410577774 0.350299239159 -0.289061546326
15.1888570786 0.331910997629 -0.311685472727
15.1888570786 0.331910997629 -0.311685472727
15.0533676147 0.308946013451 -0.314515978098
15.0533676147 0.308946013451 -0.314515978098
14.9362564087 0.28436473012 -0.301787227392
14.9362564087 0.28436473012 -0.301787227392
14.8392295837 0.260345548391 -0.278582721949
14.8392295837 0.260345548391 -0.278582721949
14.7611846924 0.237500846386 -0.250553160906
14.7611846924 0.237500846386 -0.250553160906
14.6992607117 0.217257216573 -0.222581461072
14.6992607117 0.217257216573 -0.222581461072
14.6502285004 0.20083604753 -0.198380723596
14.6502285004 0.20083604753 -0.198380723596
14.6115045547 0.18863812089 -0.180662542582
14.6115045547 0.18863812089 -0.180662542582
14.5659751892 0.180526912212 -0.172527730465
14.5659751892 0.180526912212 -0.172527730465
13.9472446442 -0.0437381491065 0.126683324575
13.9472446442 -0.0437381491065 0.126683324575
13.9735736847 -0.0921059250832 0.265205591917
13.9735736847 -0.0921059250832 0.265205591917
14.0219659805 -0.140429586172 0.401782423258
14.0219659805 -0.140429586172 0.401782423258
14.0912666321 -0.189180761576 0.536611437798
14.0912666321 -0.189180761576 0.536611437798
14.1828145981 -0.238575637341 0.669389605522
14.1828145981 -0.238575637341 0.669389605522
14.3002414703 -0.287876307964 0.798408269882
14.3002414703 -0.287876307964 0.798408269882
14.4473781586 -0.332789808512 0.919861316681
14.4473781586 -0.332789808512 0.919861316681
14.6216850281 -0.364865034819 1.02769315243
14.6216850281 -0.364865034819 1.02769315243
14.8215074539 -0.392465978861 1.1163443327
14.8215074539 -0.392465978861 1.1163443327
15.0546913147 -0.395497202873 1.18136870861
15.0546913147 -0.395497202873 1.18136870861
15.321647644 -0.366986304522 1.18712842464
15.321647644 -0.366986304522 1.18712842464
15.591753006 -0.312555879354 1.15404462814
15.591753006 -0.312555879354 1.15404462814
15.8547296524 -0.203825592995 1.01115477085
15.8547296524 -0.203825592995 1.01115477085
16.047580719 -0.0574566274881 0.812178194523
16.047580719 -0.0574566274881 0.812178194523
16.1570625305 0.103422388434 0.557063102722
16.1570625305 0.103422388434 0.557063102722
16.1531200409 0.255294501781 0.283634364605
16.1531200409 0.255294501781 0.283634364605
16.0508346558 0.373398095369 0.0423567518592
16.0508346558 0.373398095369 0.0423567518592
15.8874092102 0.44752907753 -0.144131675363
15.8874092102 0.44752907753 -0.144131675363
15.6993217468 0.482252955437 -0.276099801064
15.6993217468 0.482252955437 -0.276099801064
15.5094623566 0.484935045242 -0.358777493238
15.5094623566 0.484935045242 -0.358777493238
15.3320617676 0.467457950115 -0.400836884975
15.3320617676 0.467457950115 -0.400836884975
15.1736526489 0.43999221921 -0.413913965225
15.1736526489 0.43999221921 -0.413913965225
15.0374183655 0.407317757607 -0.406219929457
15.0374183655 0.407317757607 -0.406219929457
14.9230089188 0.373562455177 -0.384257078171
14.9230089188 0.373562455177 -0.384257078171
14.8298492432 0.342329055071 -0.353144884109
14.8298492432 0.342329055071 -0.353144884109
14.7563610077 0.313613384962 -0.317878127098
14.7563610077 0.313613384962 -0.317878127098
14.6995487213 0.288102805614 -0.283675611019
14.6995487213 0.288102805614 -0.283675611019
14.6559514999 0.266949653625 -0.254543691874
14.6559514999 0.266949653625 -0.254543691874
14.6225795746 0.251039415598 -0.233333691955
14.6225795746 0.251039415598 -0.233333691955
14.5839395523 0.240511566401 -0.222927182913
14.5839395523 0.240511566401 -0.222927182913
13.9471092224 -0.0522540509701 0.13741992414
13.9471092224 -0.0522540509701 0.13741992414
13.9731454849 -0.110377468169 0.288448005915
13.9731454849 -0.110377468169 0.288448005915
14.020614624 -0.168556347489 0.43766656518
14.020614624 -0.168556347489 0.43766656518
14.0882463455 -0.227360412478 0.586076974869
14.0882463455 -0.227360412478 0.586076974869
14.1778383255 -0.287008821964 0.734258294106
14.1778383255 -0.287008821964 0.734258294106
14.2936763763 -0.345772743225 0.879954278469
14.2936763763 -0.345772743225 0.879954278469
14.4396209717 -0.40155813098 1.02396774292
14.4396209717 -0.40155813098 1.02396774292
14.5970115662 -0.461726903915 1.17421805859
14.5970115662 -0.461726903915 1.17421805859
14.8234701157 -0.482745200396 1.25066268444
14.8234701157 -0.482745200396 1.25066268444
15.0605573654 -0.531706809998 1.36538910866
15.0605573654 -0.531706809998 1.36538910866
15.3623971939 -0.491424411535 1.3758481741
15.3623971939 -0.491424411535 1.3758481741
15.6515922546 -0.421281456947 1.32592022419
15.6515922546 -0.421281456947 1.32592022419
15.9749641418 -0.237183824182 1.10733687878
15.9749641418 -0.237183824182 1.10733687878
16.1772766113 -0.0512753948569 0.86465972662
16.1772766113 -0.0512753948569 0.86465972662
16.2878360748 0.154150798917 0.544418811798
16.2878360748 0.154150798917 0.544418811798
16.2627906799 0.342250525951 0.205657467246
16.2627906799 0.342250525951 0.205657467246
16.1241798401 0.482038289309 -0.0866111889482
16.1241798401 0.482038289309 -0.0866111889482
15.9223909378 0.562274754047 -0.300301581621
15.9223909378 0.562274754047 -0.300301581621
15.7039031982 0.591383218765 -0.440626293421
15.7039031982 0.591383218765 -0.440626293421
15.494977951 0.58529239893 -0.518287420273
15.494977951 0.58529239893 -0.518287420273
15.3076190948 0.558429896832 -0.549325764179
15.3076190948 0.558429896832 -0.549325764179
15.1455011368 0.522209823132 -0.54961180687
15.1455011368 0.522209823132 -0.54961180687
15.0100059509 0.481945097446 -0.527604699135
15.0100059509 0.481945097446 -0.527604699135
14.8999290466 0.441022247076 -0.491405010223
14.8999290466 0.441022247076 -0.491405010223
14.8127441406 0.403683334589 -0.448753029108
14.8127441406 0.403683334589 -0.448753029108
14.7457485199 0.370614498854 -0.404174000025
14.7457485199 0.370614498854 -0.404174000025
14.6956653595 0.34156498313 -0.36192175746
14.6956653595 0.34156498313 -0.36192175746
14.6592235565 0.317313432693 -0.326155751944
14.6592235565 0.317313432693 -0.326155751944
14.6328926086 0.298881620169 -0.30003029108
14.6328926086 0.298881620169 -0.30003029108
14.6032361984 0.286623418331 -0.286329627037
14.6032361984 0.286623418331 -0.286329627037
13.9471006393 -0.0582954846323 0.150024875998
13.9471006393 -0.0582954846323 0.150024875998
13.9725284576 -0.123228400946 0.315566599369
13.9725284576 -0.123228400946 0.315566599369
14.0186853409 -0.188292145729 0.479804694653
14.0186853409 -0.188292145729 0.479804694653
14.0844573975 -0.254032164812 0.644763171673
14.0844573975 -0.254032164812 0.644763171673
14.1718025208 -0.31991353631 0.811168193817
14.1718025208 -0.31991353631 0.811168193817
14.2848005295 -0.383429974318 0.976666212082
14.2848005295 -0.383429974318 0.976666212082
14.427936554 -0.450176358223 1.14857673645
14.427936554 -0.450176358223 1.14857673645
14.5814294815 -0.537935197353 1.32189965248
14.5814294815 -0.537935197353 1.32189965248
14.8339796066 -0.55490976572 1.43714618683
14.8339796066 -0.55490976572 1.43714618683
15.0955152512 -0.600073158741 1.57054948807
15.0955152512 -0.600073158741 1.57054948807
15.416934967 -0.529155254364 1.61051249504
15.416934967 -0.529155254364 1.61051249504
15.7729387283 -0.385045021772 1.45605504513
15.7729387283 -0.385045021772 1.45605504513
16.118478775 -0.183966994286 1.19704449177
16.118478775 -0.183966994286 1.19704449177
16.3493309021 0.0116095403209 0.884766459465
16.3493309021 0.0116095403209 0.884766459465
16.4574756622 0.242416322231 0.478073328733
16.4574756622 0.242416322231 0.478073328733
16.3990478516 0.449297994375 0.0566093996167
16.3990478516 0.449297994375 0.0566093996167
16.2085399628 0.590691328049 -0.288955122232
16.2085399628 0.590691328049 -0.288955122232
15.9561262131 0.66097342968 -0.519748926163
15.9561262131 0.66097342968 -0.519748926163
15.7021579742 0.674896717072 -0.649785518646
15.7021579742 0.674896717072 -0.649785518646
15.4738368988 0.653548121452 -0.712024509907
15.4738368988 0.653548121452 -0.712024509907
15.2767314911 0.612214446068 -0.725948870182
15.2767314911 0.612214446068 -0.725948870182
15.1127405167 0.565331339836 -0.708412468433
15.1127405167 0.565331339836 -0.708412468433
14.979514122 0.518751144409 -0.669032514095
14.979514122 0.518751144409 -0.669032514095
14.8749628067 0.474414885044 -0.617749929428
14.8749628067 0.474414885044 -0.617749929428
14.7943029404 0.434494435787 -0.562041461468
14.7943029404 0.434494435787 -0.562041461468
14.734380722 0.39974206686 -0.506861925125
14.734380722 0.39974206686 -0.506861925125
14.6915540695 0.369448572397 -0.455048143864
14.6915540695 0.369448572397 -0.455048143864
14.6628055573 0.344262212515 -0.41121956706
14.6628055573 0.344262212515 -0.41121956706
14.6442394257 0.325046032667 -0.379074394703
14.6442394257 0.325046032667 -0.379074394703
14.6247396469 0.312246203423 -0.361269235611
14.6247396469 0.312246203423 -0.361269235611
13.9472351074 -0.0615557953715 0.164169535041
13.9472351074 -0.0615557953715 0.164169535041
13.9719429016 -0.130078196526 0.345886945724
13.9719429016 -0.130078196526 0.345886945724
14.016875267 -0.198653459549 0.527184844017
14.016875267 -0.198653459549 0.527184844017
14.0811481476 -0.267550885677 0.710802137852
14.0811481476 -0.267550885677 0.710802137852
14.1675510406 -0.335597574711 0.897995233536
14.1675510406 -0.335597574711 0.897995233536
14.2811594009 -0.399948090315 1.0865688324
14.2811594009 -0.399948090315 1.0865688324
14.4310970306 -0.461766302586 1.28181791306
14.4310970306 -0.461766302586 1.28181791306
14.6223926544 -0.524701297283 1.45695209503
14.6223926544 -0.524701297283 1.45695209503
14.8710355759 -0.560347735882 1.63365507126
14.8710355759 -0.560347735882 1.63365507126
15.21205616 -0.544755756855 1.73911833763
15.21205616 -0.544755756855 1.73911833763
15.5048923492 -0.499047487974 1.81790399551
15.5048923492 -0.499047487974 1.81790399551
15.9018325806 -0.349117577076 1.59866666794
15.9018325806 -0.349117577076 1.59866666794
16.2527961731 -0.17323589325 1.35573101044
16.2527961731 -0.17323589325 1.35573101044
16.5394325256 0.0797472149134 0.949934482574
16.5394325256 0.0797472149134 0.949934482574
16.6543674469 0.341175228357 0.40984082222
16.6543674469 0.341175228357 0.40984082222
16.5514984131 0.550249218941 -0.123585954309
16.5514984131 0.550249218941 -0.123585954309
16.2971858978 0.675195515156 -0.525571763515
16.2971858978 0.675195515156 -0.525571763515
15.9868831635 0.728876948357 -0.765150427818
15.9868831635 0.728876948357 -0.765150427818
15.6944561005 0.727105081081 -0.881472885609
15.6944561005 0.727105081081 -0.881472885609
15.444442749 0.687903344631 -0.918116569519
15.444442749 0.687903344631 -0.918116569519
15.2399702072 0.629565596581 -0.908469855785
15.2399702072 0.629565596581 -0.908469855785
15.0786619186 0.571106553078 -0.869072973728
15.0786619186 0.571106553078 -0.869072973728
14.9512052536 0.517990291119 -0.811191439629
14.9512052536 0.517990291119 -0.811191439629
14.853477478 0.47061046958 -0.74509036541
14.853477478 0.47061046958 -0.74509036541
14.7792787552 0.430263608694 -0.677119791508
14.7792787552 0.430263608694 -0.677119791508
14.7258863449 0.396185696125 -0.611702263355
14.7258863449 0.396185696125 -0.611702263355
14.6899328232 0.367273658514 -0.551032960415
14.6899328232 0.367273658514 -0.551032960415
14.6682310104 0.343296200037 -0.499605953693
14.6682310104 0.343296200037 -0.499605953693
14.6571483612 0.324951499701 -0.461846977472
14.6571483612 0.324951499701 -0.461846977472
14.6480522156 0.312776565552 -0.440091073513
14.6480522156 0.312776565552 -0.440091073513
13.9474658966 -0.061753988266 0.179374173284
13.9474658966 -0.061753988266 0.179374173284
13.9716033936 -0.130391195416 0.378301024437
13.9716033936 -0.130391195416 0.378301024437
14.0156259537 -0.198800221086 0.57784897089
14.0156259537 -0.198800221086 0.57784897089
14.0788478851 -0.266753464937 0.781252503395
14.0788478851 -0.266753464937 0.781252503395
14.1649589539 -0.332941055298 0.990402758121
14.1649589539 -0.332941055298 0.990402758121
14.2821674347 -0.396196871996 1.20421659946
14.2821674347 -0.396196871996 1.20421659946
14.4415311813 -0.451926767826 1.42057394981
14.4415311813 -0.451926767826 1.42057394981
14.6587667465 -0.497861355543 1.62536001205
14.6587667465 -0.497861355543 1.62536001205
14.9443397522 -0.51987349987 1.82428479195
14.9443397522 -0.51987349987 1.82428479195
15.3190088272 -0.483831346035 1.91960573196
15.3190088272 -0.483831346035 1.91960573196
15.5948581696 -0.454853504896 2.01049613953
15.5948581696 -0.454853504896 2.01049613953
16.021572113 -0.29863473773 1.80246424675
16.021572113 -0.29863473773 1.80246424675
16.4227294922 -0.136646285653 1.51122379303
16.4227294922 -0.136646285653 1.51122379303