# vtk DataFile Version 2.0
sampleSurface
ASCII
DATASET POLYDATA
POINTS 6837 double
581321 4785370 969.805969238
581333.6875 4785370 969.71295166
581353.3125 4785370 969.565979004
581365.625 4785370 969.362426758
581385.625 4785370 969.02746582
581397.5 4785370 969.024597168
581321 4785381.5 969.960021973
581417.875 4785370 969.007995605
581333.9375 4785381.5 969.918273926
581430.1875 4785370 969.352478027
581340.4375 4785381.5 969.868774414
581353.3125 4785381.5 969.761962891
581450.1875 4785370 969.912597656
581365.875 4785381.5 969.581787109
581463.75 4785370 970.42980957
581373.1875 4785381 969.456542969
581385.625 4785381 969.296020508
581334 4785387.5 969.993896484
581482.5 4785370 971.136413574
581340.3125 4785387.5 969.969055176
581397.75 4785381 969.221496582
581405.75 4785381 969.21484375
581497.5 4785370 971.711914062
581417.875 4785381 969.465576172
581366 4785387.5 969.68939209
581514.8125 4785370 972.389465332
581373 4785387.5 969.620727539
581430.6875 4785381.5 969.801757812
581531 4785370 972.792053223
581437.1875 4785381.5 969.99017334
581397.9375 4785388 969.393859863
581547.125 4785370 973.181945801
581450.1875 4785382 970.40020752
581405.4375 4785388 969.494567871
581321 4785399 970.19152832
581564.375 4785370 973.72467041
581464.3125 4785382.5 970.951599121
581334.1875 4785399 970.140991211
581431 4785387.5 970.04675293
581468.1875 4785383 971.104614258
581436.9375 4785387 970.199523926
581579.375 4785370 974.197387695
581353.3125 4785399 970.064453125
581482.5 4785383.5 971.689147949
581464.5 4785386 971.098449707
581597.9375 4785370 974.847839355
581468.0625 4785386 971.233520508
581366.25 4785399 969.93560791
581611.6875 4785370 975.293579102
581498.25 4785384 972.371643066
581499.0625 4785384 972.405212402
581498.25 4785385 972.404052734
581499 4785385 972.432495117
581385.625 4785399 969.7421875
581631.875 4785370 976.302368164
581514.8125 4785385 973.01171875
581398.5625 4785399 969.931396484
581530.125 4785384 973.459838867
581644 4785370 976.908569336
581531.8125 4785383.5 973.498962402
581530.0625 4785385.5 973.521118164
581417.875 4785399 970.203979492
581321 4785411 970.229492188
581531.875 4785385.5 973.586669922
581666 4785370 977.89642334
581561.4375 4785383 974.332580566
581431.5625 4785399 970.578125
581565.1875 4785383 974.443237305
581334.375 4785411 970.311706543
581676.3125 4785370 978.351928711
581547.125 4785386 974.014221191
581339.9375 4785411 970.289123535
581450.1875 4785399 971.076904297
581592.4375 4785381.5 975.478088379
581353.3125 4785411 970.234802246
581598.875 4785381.5 975.688476562
581561.25 4785386.5 974.505249023
581700.125 4785370 979.502319336
581565.5 4785386.5 974.729553223
581366.5 4785411 970.16973877
581465.125 4785399 971.659423828
581372.4375 4785411 970.109313965
581623.25 4785380.5 976.804931641
581708.625 4785370 979.908813477
581334.375 4785416 970.327331543
581632.9375 4785380 977.249023438
581339.875 4785416 970.360839844
581385.625 4785410.5 970.034362793
581482.5 4785399 972.341064453
581579.375 4785387 975.446960449
581654 4785379 978.193969727
581734.375 4785370 981.257385254
581398.875 4785411 970.188781738
581666.9375 4785378.5 978.725036621
581498.9375 4785399 972.98614502
581592 4785387.5 975.895507812
581740.875 4785370 981.567687988
581404.5625 4785411 970.271057129
581366.625 4785416 970.244140625
581684.75 4785377.5 979.528503418
581599.625 4785388 976.328735352
581372.3125 4785416 970.241149902
581514.8125 4785399 973.611450195
581700.9375 4785377 980.237121582
581417.875 4785411.5 970.62322998
581715.3125 4785376 981.063964844
581611.6875 4785389 977.006774902
581768.625 4785370 982.96673584
581532.625 4785399 974.223083496
581773.1875 4785370 983.19329834
581432.125 4785412 971.0546875
581735.1875 4785375 981.979675293
581399 4785416 970.317504883
581435.875 4785412 971.158325195
581404.375 4785416 970.431884766
581622.375 4785389.5 977.584472656
581745.9375 4785374.5 982.546020508
581547.125 4785399 974.70135498
581769.3125 4785373.5 983.559570312
581321 4785428 970.28302002
581450.1875 4785412.5 971.606933594
581634.125 4785390 978.286804199
581802.3125 4785370 984.174194336
581776.75 4785373 983.875549316
581432.25 4785415 971.171447754
581566.5625 4785399 975.65838623
581805.5 4785370 984.278747559
581435.6875 4785415 971.278869629
581334.4375 4785428 970.36529541
581644 4785390.5 978.885742188
581579.375 4785399 976.273193359
581465.8125 4785413 972.259887695
581466.875 4785413 972.303283691
581802.8125 4785372.5 984.619995117
581808.0625 4785372.5 984.761047363
581652.75 4785391 979.303222656
581465.8125 4785414 972.299987793
581466.8125 4785414 972.335205078
581353.3125 4785428 970.481506348
581835.4375 4785370 984.921264648
581837.8125 4785370 984.972351074
581600.8125 4785399 977.37689209
581482.5 4785413.5 972.894165039
581366.875 4785428 970.476013184
581497.875 4785413 973.438110352
581611.6875 4785399 977.927001953
581835.8125 4785372 985.26171875
581499.5 4785412.5 973.49987793
581668.8125 4785392.5 980.372314453
581839.6875 4785371.5 985.352844238
581497.8125 4785414.5 973.490783691
581385.625 4785428 970.466003418
581676.3125 4785393 980.879150391
581499.5625 4785414.5 973.56817627
581868.1875 4785370 985.308837891
581870.125 4785370 985.330383301
581528.75 4785411.5 974.689697266
581682.875 4785393 981.171813965
581533.3125 4785411.5 974.839111328
581635.125 4785399 979.19152832
581399.5 4785428 970.782592773
581868.5 4785371.5 985.615234375
581644 4785399 979.65838623
581871.6875 4785371.5 985.592712402
581514.8125 4785415 974.263671875
581559.4375 4785410 976.092956543
581567.4375 4785409.5 976.459960938
581417.875 4785428 971.187988281
581321 4785440 970.249084473
581900.5625 4785370 985.372253418
581816.9375 4785380.5 987
581902.375 4785370 985.36505127
581805.5 4785382 987
581528.5625 4785415.5 974.849365234
581789.0625 4785384.5 987
581590 4785408.5 977.640625
581837.8125 4785378.5 987
581669.6875 4785399 981.175231934
581704.0625 4785395 982.980102539
581432.8125 4785428 971.672912598
581334.5 4785440 970.433654785
581533.6875 4785416 975.169311523
581900.8125 4785371.5 985.626525879
581601.75 4785408 978.196350098
581676.3125 4785399 981.542541504
581904 4785371.5 985.577514648
581708.625 4785395.5 983.410583496
581339.75 4785440 970.466003418
581847.25 4785378.5 987
581712.4375 4785395.5 983.62286377
581620.5625 4785407 979.202148438
581450.1875 4785428 972.233459473
581870.125 4785377.5 987
581930.875 4785370 983.651062012
581353.3125 4785440.5 970.541931152
581547.125 4785416.5 975.902404785
581773.1875 4785389.5 987
581636 4785406 979.959533691
581934.6875 4785370 983.391235352
581651 4785405.5 980.847595215
581764.9375 4785391.5 987
581704.75 4785399 983.621582031
581466.4375 4785428 972.839233398
581367.125 4785440.5 970.691101074
581708.625 4785399 983.892028809
581558.9375 4785417.5 976.559265137
581334.5 4785445 970.420227051
581371.8125 4785440.5 970.688537598
581670.5 4785404 981.870117188
581931.5625 4785373 984.217651367
581339.6875 4785445 970.488647461
581681.375 4785403.5 982.541748047
581482.5 4785428 973.4375
581961 4785370 981.683532715
581568.25 4785418 977.168273926
581881.25 4785380 987
581385.625 4785440.5 970.776184082
581938.375 4785373.5 983.737670898
581967 4785370 981.374816895
581705.3125 4785402 984.072753906
581711.375 4785401.5 984.575012207
581740.125 4785398.5 986.332946777
581740.875 4785398.5 986.406616211
581741.5625 4785398.5 986.438110352
581500.25 4785428 974.182006836
581740.3125 4785399 986.45892334
581740.875 4785399 986.504272461
581579.375 4785418.5 977.851928711
581367.125 4785444.5 970.711914062
581740.375 4785399.5 986.552429199
581399.9375 4785441 971.139709473
581741.3125 4785399.5 986.626159668
581902.375 4785380 987
581371.6875 4785444.5 970.786804199
581747.625 4785399 987
581403.5 4785441 971.220397949
581742.375 4785400.5 987
581991.875 4785370 980.444030762
581514.8125 4785428 974.783325195
581589.0625 4785419.5 978.452453613
581740.875 4785401 987
581771.5625 4785397.5 988.448730469
581999.3125 4785370 980.215209961
581961.8125 4785374.5 982.446289062
581775 4785397.5 988.609741211
581417.875 4785441.5 971.627624512
581400 4785444 971.219177246
581915.25 4785381.5 987
581534.5625 4785428 975.942871094
581773.1875 4785399 988.904968262
581403.375 4785444 971.316955566
581775.5625 4785399 989.062255859
581802.0625 4785396 990.019836426
581972.75 4785375 981.90045166
581603.1875 4785420.5 979.494873047
581809.1875 4785395.5 990.250610352
582023.3125 4785370 979.662719727
581547.125 4785428 976.657714844
581433.375 4785442 972.151184082
581434.6875 4785442 972.194824219
581770.5625 4785401.5 989.335754395
581611.6875 4785421 980.06652832
582031.625 4785370 979.475646973
581718.9375 4785408.5 987
581433.4375 4785443 972.19152832
581434.625 4785443 972.230529785
581773.1875 4785402 989.868835449
581321 4785457 970.201538086
581833.4375 4785395 990.866882324
581776.625 4785402 990.028625488
581992.75 4785376 981.246948242
581619.0625 4785421.5 980.528625488
581805.5 4785399 991.030456543
581569.1875 4785428 977.988220215
581450.1875 4785442.5 972.723571777
581842.375 4785395 991.048950195
581810.25 4785399 991.174560547
581334.4375 4785457 970.377807617
582054.0625 4785370 978.304321289
581579.375 4785428 978.59362793
581465.6875 4785442 973.316894531
582006.25 4785376.5 980.84185791
581467.0625 4785442 973.364990234
582063.875 4785370 977.792602539
581465.6875 4785443 973.355529785
581353.3125 4785457 970.624511719
581467.125 4785443 973.416992188
581865.5625 4785395 991.003356934
581934.6875 4785387 987
581837.8125 4785399 992.067565918
581638.6875 4785423.5 982.335205078
581708.625 4785415 987
581496.625 4785440.5 974.533935547
582024.1875 4785376.5 980.475708008
581874.5 4785395 990.861328125
581500.875 4785440.5 974.704528809
581604.0625 4785428 980.246398926
581799.625 4785404.5 992.173034668
581843.5 4785399 992.024414062
581367.3125 4785457 970.869262695
582084.25 4785370 976.472412109
581644 4785423.5 982.798339844
[...]
POINT_DATA 6837
FIELD attributes 1
U 3 6837 float
10.5820541382 1.13020155734e-10 0.0978978946805
10.5751047134 1.47010979779e-11 0.175730779767
10.4964799881 -1.51454515596e-10 0.281545758247
10.4747028351 -1.17028192692e-10 0.347537785769
10.3225774765 -1.21365709149e-10 0.433735758066
10.3014411926 3.37225872227e-11 0.494134008884
10.592751503 8.19362286353e-11 0.0570251531899
10.0915594101 2.90975132877e-10 0.574033439159
10.9085168839 0.000125785096316 0.178733289242
10.0856781006 1.78001627327e-10 0.632045209408
10.8810853958 0.000125240170746 0.213695004582
10.5101957321 -1.32302329803e-05 0.281713157892
9.87300395966 5.51958097283e-11 0.698413491249
10.8259477615 8.55974649312e-05 0.341507762671
9.867146492 -3.2430908653e-11 0.750594079494
10.7662239075 8.46300681587e-05 0.373167514801
10.3431301117 -2.93189441436e-05 0.43429005146
10.9238204956 0.000126618411741 0.160838678479
9.64925575256 -1.4311793417e-10 0.788811802864
10.8912944794 0.000139756812132 0.213194474578
10.6623678207 0.000144518140587 0.48658823967
10.5796670914 0.000144428602653 0.517990887165
9.62511634827 -6.86714712872e-11 0.826156198978
10.1310110092 -8.93535343494e-06 0.575578153133
10.8366479874 0.000101189332781 0.342197835445
9.40792369843 -7.63753209981e-12 0.831185519695
10.7849378586 8.61682929099e-05 0.37261235714
10.5214958191 0.000277668063063 0.630421638489
9.32844638824 -6.0285249015e-12 0.843883097172
10.4600639343 0.000282297376543 0.65183287859
10.6807689667 0.000147130558616 0.487816005945
9.09138393402 -2.30937925033e-12 0.819342136383
9.92085552216 3.14696735586e-05 0.70084041357
10.6160535812 0.000171280407812 0.517493128777
10.6330375671 0 0
8.98794364929 -1.96540943243e-11 0.808924078941
10.3981895447 0.000459377100924 0.757474660873
10.6284179688 -1.36754370033e-05 0.122342184186
10.5504493713 0.000302853237372 0.632445275784
10.3595132828 0.000465021468699 0.765487313271
10.491147995 0.0003279390221 0.652059018612
8.79012775421 -4.35196947923e-11 0.772211551666
10.5313177109 2.72526449407e-05 0.282016158104
9.71078491211 8.56941114762e-05 0.792747080326
10.4175872803 0.000491020444315 0.758867204189
8.65584564209 6.1155164266e-11 0.742378592491
10.381152153 0.000500296999235 0.766202926636
10.5143880844 1.0093182027e-05 0.351576119661
8.49303340912 1.19099369256e-10 0.705657720566
10.271607399 0.000709576124791 0.846000790596
10.2629213333 0.000711293483619 0.846286177635
10.2763385773 0.000718194409274 0.846351921558
10.2679824829 0.000719140924048 0.846591472626
10.3772468567 -2.97865663015e-05 0.435285300016
8.3652009964 -5.08937128552e-11 0.665770173073
9.48535919189 0.000155554880621 0.837251663208
10.3690433502 -8.57926352182e-06 0.501293182373
9.9971075058 0.000897357240319 0.872615218163
8.27273654938 -1.09250726521e-10 0.640402674675
9.98707675934 0.000894765777048 0.873826384544
10.0026712418 0.000909827940632 0.873072445393
10.1946640015 5.00062778883e-05 0.578171908855
10.6354999542 0 0
9.99345397949 0.000913955562282 0.874593675137
8.10169506073 -1.20612922427e-10 0.590087175369
9.62075614929 0.00101462146267 0.843890666962
10.1873350143 9.01571693248e-05 0.642684400082
9.59312152863 0.00100575678516 0.841358840466
10.9526424408 0.000150962252519 0.165068119764
8.03138828278 -1.25605373325e-10 0.572624921799
9.20446205139 0.000231809390243 0.829737484455
10.9238042831 0.000162542113685 0.211390435696
9.98722648621 0.000159680785146 0.704333007336
9.23413848877 0.00104886421468 0.780560314655
10.5432300568 2.72044599114e-05 0.282149225473
9.17775535583 0.00102970737498 0.769682943821
9.63912773132 0.0010532453889 0.845908284187
7.85487413406 7.49883558027e-11 0.519845962524
9.61693382263 0.00105673633516 0.844074487686
10.8843593597 0.00010579143418 0.34509536624
9.981965065 0.00020729789685 0.761939466
10.8404750824 9.3091839517e-05 0.370746225119
8.86203384399 0.000973245128989 0.701801538467
7.81566953659 1.15834494774e-10 0.510057330132
10.9540672302 0.000151161788381 0.165286287665
8.7813501358 0.00093085411936 0.681808710098
10.9310913086 0.000157379268785 0.211030632257
10.3996086121 -2.53168764175e-05 0.435882806778
9.78330039978 0.000237435699091 0.797553002834
8.97042751312 0.0003163794172 0.790584802628
8.51822757721 0.000782724993769 0.621801972389
7.64661979675 1.41385922067e-11 0.458710193634
10.7657175064 0.000177363137482 0.493189781904
8.39804363251 0.000735518930014 0.591924488544
9.75845813751 0.000296295649605 0.838598668575
9.28498268127 0.0011283083586 0.78707832098
7.62608671188 0 0.453784793615
10.7170362473 0.000195965214516 0.515825688839
10.891749382 0.000100014542113 0.345570713282
8.2012720108 0.00053625437431 0.547528922558
9.23786830902 0.00112389039714 0.776613593102
10.8554944992 9.16564385989e-05 0.370299458504
9.55992698669 0.000298039347399 0.843314766884
8.05930900574 0.000485395110445 0.512278854847
10.2308111191 4.82362665934e-05 0.579565942287
7.9524936676 0.00030091687222 0.487835943699
8.74867343903 0.000394223345211 0.732948064804
7.45300292969 0 0.404776275158
9.49354934692 0.000364769919543 0.858968019485
7.44541072845 0 0.402772963047
10.6696462631 0.000379066070309 0.640380740166
7.79426431656 0.00025449655368 0.44961437583
10.7794561386 0.000176899295184 0.494104802608
10.6336221695 0.000395350623876 0.652686655521
10.737950325 0.000190802122233 0.515538275242
8.96737957001 0.0011047932785 0.716354370117
7.72892379761 0.000146952676005 0.436887234449
9.2977437973 0.000354596209945 0.83859282732
7.55258274078 0.000113511472591 0.397427886724
10.638967514 0 0
10.0392379761 0.000144450095831 0.70695400238
8.8891544342 0.00107437220868 0.694676458836
7.22036027908 6.41019737291e-11 0.354099839926
7.51007795334 6.94193659001e-05 0.391151130199
10.6834459305 0.000377253280021 0.641343533993
9.22812461853 0.000424091151217 0.831214785576
7.21114444733 6.88972282004e-11 0.352840155363
10.6515245438 0.00038913130993 0.652814805508
10.6428928375 -1.33699541038e-05 0.124655842781
8.57084846497 0.000446584948804 0.672203838825
9.089594841 0.000421977078076 0.803036987782
10.5712366104 0.00061164831277 0.76943731308
10.5609893799 0.000614761549514 0.771631479263
7.28657341003 5.28788041265e-05 0.348913997412
7.2538523674 3.99470918637e-05 0.345316529274
8.67896652222 0.000971248315182 0.644590556622
10.5765314102 0.00061037595151 0.769816696644
10.5663375854 0.000612539588474 0.771808624268
10.560418129 6.51199252388e-06 0.282392829657
6.96088552475 2.9163628977e-12 0.308151215315
6.95289945602 -3.66947574756e-13 0.307370096445
8.98544120789 0.000483001203975 0.773795545101
9.8448677063 0.000202805429581 0.801464259624
10.5517816544 -7.02611987435e-06 0.35537147522
10.3799715042 0.000825344934128 0.852440655231
8.88593864441 0.000490881502628 0.747903347015
7.00728321075 3.10137584165e-05 0.304674327374
10.3746805191 0.00082876032684 0.856440186501
8.58232307434 0.000894723518286 0.614540636539
6.98645687103 2.85799414996e-05 0.302858054638
10.3839912415 0.000819497276098 0.852630019188
10.4326000214 -3.44775980921e-05 0.436848133802
8.40905857086 0.000448654085631 0.611465394497
10.3789834976 0.000819807988591 0.857031166553
6.69144821167 -6.73389399797e-11 0.268068790436
6.68396377563 -7.01770586087e-11 0.26749137044
10.1094856262 0.00100040459074 0.882048368454
8.44815921783 0.000755985616706 0.582281947136
10.0851755142 0.00100961141288 0.885737836361
8.751121521 0.000519601220731 0.70300000906
10.4324941635 -1.7261971152e-05 0.507997393608
6.7301774025 2.40272511292e-05 0.265856474638
8.6873254776 0.000523431575857 0.684884548187
6.70466041565 2.56279654423e-05 0.263840824366
9.64107036591 0.000237648899201 0.849647402763
9.80902290344 0.00113917968702 0.865077912807
9.76171207428 0.00114283035509 0.860996186733
10.2794847488 2.37455587921e-05 0.581555008888
10.6367673874 0 0
6.41819763184 -2.56658973588e-12 0.233747005463
7.43591403961 5.20489811606e-05 0.359040558338
6.40896701813 0 0.233154565096
7.56332397461 8.2334241597e-05 0.378431707621
10.1239681244 0.00097520602867 0.883232533932
7.7651309967 9.90961125353e-05 0.411930561066
9.49858665466 0.00122056470718 0.81515288353
7.20365142822 4.26385631727e-05 0.323700904846
8.54184818268 0.000502129551023 0.631862461567
8.38021945953 0.000627095869277 0.55190217495
10.278131485 5.53290519747e-05 0.652159273624
10.9637327194 2.45337068918e-05 0.166730642319
10.1091403961 0.000967960688286 0.888625919819
6.44946575165 2.50124703598e-05 0.231589525938
9.41420269012 0.00120836368296 0.797560155392
8.50817775726 0.000495341257192 0.621839046478
6.42389678955 2.67934519798e-05 0.229739323258
8.3266954422 0.000412219174905 0.559396266937
10.9417934418 3.01345571643e-05 0.210465461016
7.1091094017 3.21983861795e-05 0.310590744019
8.33961391449 0.000531045778189 0.540485739708
9.18697738647 0.00120789930224 0.747440636158
10.1006755829 0.00010124318942 0.710191488266
6.88145446777 2.79649229924e-05 0.279033541679
5.98908567429 0 0.197224229574
10.5646514893 1.26897593873e-05 0.282446235418
9.46083641052 0.000268765259534 0.853584051132
7.96056604385 0.000183457115781 0.444371938705
9.06379127502 0.00115827366244 0.716194331646
5.9455704689 0 0.194941997528
8.90338993073 0.0010585419368 0.677098631859
8.07061004639 0.000203514122404 0.464147537947
8.40189552307 0.000436379661551 0.569468677044
10.0921211243 0.000135379144922 0.772799611092
10.936299324 9.22042272578e-06 0.348416209221
8.39694690704 0.000428656378062 0.566267073154
9.85856342316 0.001068060752 0.870508491993
10.9625101089 2.45061692112e-05 0.166543483734
10.9064998627 2.37179278884e-06 0.368734478951
8.75045681 0.000952471978962 0.635741114616
6.0552778244 5.24073111592e-05 0.193709433079
10.9441013336 2.44757356995e-05 0.210351988673
8.65428924561 0.000813225051388 0.611811816692
9.9052696228 0.000150932319229 0.805486679077
5.57401847839 0 0.166792288423
9.82052135468 0.00104581692722 0.867680490017
6.78208351135 3.1188777939e-05 0.266539871693
10.4563674927 -1.97037879843e-05 0.437519222498
5.96509075165 6.08807895333e-05 0.187504276633
5.52019643784 0 0.164133101702
8.50830745697 0.000650912930723 0.568046689034
8.48375606537 0.000555242761038 0.560346901417
8.31265354156 0.000381175312214 0.512284338474
8.30842018127 0.000356831558747 0.51444876194
8.3084230423 0.000368588138372 0.511163771152
9.88356399536 0.000190612103324 0.850253283978
8.32184886932 0.000358974473784 0.515949547291
8.32218265533 0.000357798329787 0.515683472157
9.31730651855 0.00031561209471 0.826205670834
10.938369751 4.08464075008e-06 0.3485493958
8.33882045746 0.000383218924981 0.515494048595
10.8673744202 2.55666072917e-05 0.499873876572
8.33643341064 0.000371358706616 0.514787077904
6.5943441391 3.06417023239e-05 0.24293781817
10.9177083969 2.26457564168e-06 0.36839812994
8.30204772949 0.000345390231814 0.505715548992
10.8405485153 3.37738129019e-05 0.514053225517
8.37223339081 0.000356617791113 0.518324673176
5.26519632339 0 0.144912436604
9.70563411713 0.000186631863471 0.854927718639
9.59731197357 0.00108861248009 0.827756285667
8.39207458496 0.000357714277925 0.521888017654
8.17457962036 0.000254117476288 0.471421897411
5.21837186813 0 0.142684802413
5.66202068329 8.49792922963e-05 0.161013454199
8.14566993713 0.000253966107266 0.463669359684
10.317407608 2.55852992268e-05 0.583070337772
10.8758678436 2.56287967204e-05 0.500435888767
6.49251890182 3.39314792654e-05 0.231331825256
9.69188785553 0.000235361789237 0.877056896687
8.18010902405 0.000259307620581 0.471191287041
10.8531074524 2.81440898107e-05 0.51387745142
8.17051696777 0.000259050430031 0.467623412609
7.99469137192 0.000180566887138 0.428595602512
5.55079507828 9.06381828827e-05 0.153921276331
9.5359210968 0.00102993764449 0.811510741711
7.9261636734 0.000168571306858 0.412768214941
5.02577018738 0 0.128566086292
9.56331253052 0.000228546428843 0.863287091255
10.7992630005 8.87294081622e-05 0.649321317673
10.7875871658 9.22885737964e-05 0.653675675392
8.30566978455 0.000239858272835 0.487808763981
9.20510578156 0.000374820490833 0.781916499138
4.9835486412 0 0.126670628786
8.70362854004 0.0004063299275 0.581787109375
10.8040351868 8.6698011728e-05 0.649652838707
10.7928886414 8.79449944478e-05 0.653712272644
8.29115104675 0.000249794364208 0.484706670046
10.6336860657 0 0
7.73283147812 0.000122614495922 0.379384547472
8.30885314941 0.000234953491599 0.48051443696
5.35723876953 0.000102253303339 0.137727767229
9.3660030365 0.00100220588502 0.772055149078
8.02974510193 0.000183937401744 0.433185636997
9.51739883423 0.000287492934149 0.857979178429
10.1487674713 7.87855824456e-05 0.71267670393
7.64071273804 0.000100482160633 0.360877603292
7.98954677582 0.000182017145562 0.42369517684
10.6436958313 -7.15112764738e-06 0.124778397381
4.75274085999 0 0.113312274218
9.42423057556 0.000289471034193 0.837377727032
10.6722793579 0.000135729424073 0.774462759495
5.25634050369 0.000101495024865 0.131769180298
10.6695346832 0.000138536284794 0.779607176781
4.67824077606 0 0.110419273376
10.6747589111 0.00013371980458 0.774492740631
10.5704193115 -7.91881757323e-06 0.282528966665
10.6723718643 0.000134057525429 0.780079066753
7.40409183502 7.42445408832e-05 0.328329056501
6.33872556686 5.03948540427e-05 0.213817924261
7.78495121002 0.000133036257466 0.388362884521
9.31009197235 0.000858454906847 0.745395958424
8.85038280487 0.000405439408496 0.609978020191
10.4634523392 0.000173086111317 0.856573581696
5.11797475815 0.000107529507659 0.120811752975
7.28417491913 5.86108872085e-05 0.309863060713
10.4504032135 0.000182674019015 0.867033541203
9.35929298401 0.000351999013219 0.809297263622
8.30236339569 0.0001621653646 0.46409252286
7.71259784698 0.000129322928842 0.374821722507
10.5790719986 -1.3092869267e-05 0.358161717653
4.45643949509 0 0.0996511653066
9.16052246094 0.000414932466811 0.735288441181
9.30465698242 0.000361246668035 0.792776763439
9.97224521637 9.820782725e-05 0.809835553169
9.22735595703 0.000771520077251 0.722814381123
10.2483968735 0.000220021465793 0.893694698811
4.35922050476 0 0.096279874444
8.29918670654 0.000166986850672 0.464722722769
9.00227165222 0.00042130149086 0.640691280365
10.2189397812 0.000240585868596 0.902022123337
4.98690652847 0.000108796732093 0.113689437509
10.4869155884 -2.08531237149e-05 0.438398241997
8.24090480804 0.000132219414809 0.442317605019
7.43986320496 9.88110186881e-05 0.337253093719
10.4738845825 0.000159809103934 0.857088088989
10.0073356628 0.00028526360984 0.887023687363
7.3385720253 9.52142218011e-05 0.322025865316
4.18335199356 0 0.0892746448517
6.93772125244 5.7374851167e-05 0.271956413984
10.4950780869 -1.53232922457e-05 0.514635741711
10.4689426422 0.000158857525093 0.869626939297
9.25515651703 0.000406147679314 0.751369714737
9.94474601746 0.000316638441291 0.881944417953
9.23909282684 0.000411769782659 0.743812143803
4.84022665024 0.000119584081403 0.103893741965
6.86107969284 5.33058482688e-05 0.261489123106
9.75754547119 0.000364117091522 0.8483928442
8.14610767365 9.47384614847e-05 0.422614276409
4.08319425583 0 0.0862862914801
9.66060733795 0.000399671058403 0.825920164585
10.3619298935 -3.91759158447e-06 0.584873795509
10.625998497 0 0
9.84651184082 9.40516547416e-05 0.866091907024
9.54286193848 0.000431720953202 0.796518921852
6.93914699554 8.2322396338e-05 0.276367336512
9.18109226227 0.000528285861947 0.688211381435
8.10334777832 0.000117059193144 0.423693358898
9.15436553955 0.000410345295677 0.688193202019
7.9721622467 4.73750878882e-05 0.388864278793
6.90197658539 7.91964484961e-05 0.269842922688
3.95394921303 0 0.0829599052668
9.16592311859 0.000488161866087 0.683489084244
9.42534542084 0.00044903048547 0.759139358997
9.3708562851 0.000454444205388 0.743151903152
10.9511976242 4.45557543571e-06 0.164798304439
10.3616323471 7.14844918548e-06 0.660914838314
9.18179607391 0.000411130720749 0.692242026329
4.64191102982 0.000126603961689 0.0940948277712
6.59374475479 5.60545122426e-05 0.233249202371
9.17985534668 0.000411107466789 0.690849006176
10.9317350388 4.30234058513e-06 0.210941448808
10.2892026901 0.000176891917363 0.89710599184
7.80357980728 2.93912889902e-05 0.365813791752
6.51988792419 6.046078488e-05 0.22539255023
9.22360897064 0.000424195459345 0.693413197994
9.21636962891 0.0004209492472 0.690577089787
3.86505818367 0 0.0810479819775
9.19591331482 0.000401287805289 0.679801881313
10.1970176697 2.06867334782e-05 0.715202927589
9.14119720459 0.00028169961297 0.65043848753
4.53266477585 0.000135340087581 0.087786346674
7.53525352478 4.04431057177e-06 0.328925132751
9.13236045837 0.000286910217255 0.643234610558
7.70016336441 8.70517178555e-05 0.364335954189
10.5753793716 -4.70717850476e-06 0.282597988844
10.2688817978 0.000174106302438 0.908091723919
9.11792087555 0.000167349760886 0.619043827057
6.60672616959 7.69153266447e-05 0.237839013338
7.1912727356 1.58402344823e-05 0.293263614178
9.07808017731 0.000186529694474 0.598724663258
6.55568504333 7.57921297918e-05 0.231387972832
9.28357505798 0.000396368850488 0.697518229485
3.75550889969 0 0.0805016383529
6.99697256088 1.8095563064e-05 0.270838797092
9.05016326904 0.000130018233904 0.581522881985
7.11263847351 7.51581028453e-05 0.293157279491
10.1942834854 3.04826971842e-05 0.782925367355
9.14027690887 0.000316094141454 0.646170139313
10.9644060135 3.3384407061e-07 0.35021007061
9.3232460022 0.000381907448173 0.70553445816
9.76221179962 8.92456664587e-05 0.881653785706
8.93762969971 0.000134178437293 0.545768916607
9.15750026703 0.00031327304896 0.644841432571
10.9461984634 4.43487260782e-06 0.164032578468
10.9465436935 -1.27194766719e-06 0.367512345314
3.6659412384 0 0.0796026065946
10.9340677261 3.90894228985e-06 0.210827127099
8.88109588623 0.000108875348815 0.531180799007
6.73228549957 2.65685084742e-05 0.243730008602
10.0274515152 3.31189439748e-05 0.813462913036
6.63251686096 3.31884257321e-05 0.232510954142
6.71138334274 7.2174523666e-05 0.247208327055
10.0904035568 0.000195226210053 0.896190285683
6.12677812576 8.87668065843e-05 0.191850781441
6.08912372589 9.17529396247e-05 0.188779994845
6.08645248413 8.83180400706e-05 0.189112380147
6.08226060867 9.20207021409e-05 0.188340842724
6.09297704697 8.83242100826e-05 0.189411237836
6.09091901779 8.83294196683e-05 0.18931107223
6.09681081772 9.15451237233e-05 0.189283847809
6.09195709229 9.18891455512e-05 0.188973605633
3.57866668701 0 0.0815844684839
9.30440044403 0.000263323832769 0.673079431057
4.28206205368 0.000143992801895 0.0769502297044
8.68473148346 6.80288940202e-05 0.484170615673
10.5161142349 -1.51798249135e-05 0.439228266478
5.63960075378 0.000126158818603 0.154738366604
6.11066675186 8.79485742189e-05 0.190180972219
5.61391687393 8.55152029544e-05 0.15885451436
5.58264636993 0.000125213584397 0.151366949081
4.23222637177 0.000147597500472 0.0745582133532
10.9661922455 3.48436941522e-08 0.350324869156
8.6038980484 5.4832893511e-05 0.470668703318
10.0542030334 4.24457757617e-05 0.866197109222
9.17046165466 0.000207180943107 0.619000017643
9.27262401581 0.000303454289678 0.662669122219
10.9570770264 -6.03921591846e-07 0.36719506979
6.09606170654 8.6649604782e-05 0.188796550035
5.28560686111 0.000143801255035 0.130261227489
3.49753212929 0 0.0821862444282
9.20193862915 0.000203174262424 0.613641262054
9.60835075378 0.000331699673552 0.764512836933
10.0532627106 0.000189105485333 0.894331157207
5.23662614822 8.1626487372e-05 0.136334776878
9.93304538727 3.8730315282e-05 0.87299990654
10.975110054 6.11180303167e-06 0.506964564323
5.17714309692 0.000142297169077 0.124344326556
9.42759895325 0.000217614258872 0.677952647209
10.9664869308 7.03903651811e-06 0.512253701687
5.68171310425 8.59903520904e-05 0.161756545305
4.9255232811 0.000155118497787 0.108436517417
5.65694522858 8.56828482938e-05 0.160634547472
4.82872676849 7.16259673936e-05 0.115835785866
3.40596270561 0 0.0861861407757
8.32816886902 -1.26227732835e-05 0.419058322906
10.9788799286 6.36523100184e-06 0.50721347332
9.71541023254 0.000100925943116 0.867043673992
10.9714536667 6.61424655846e-06 0.512183666229
4.72989749908 0.000154629757162 0.0987074151635