# vtk DataFile Version 2.0
sampleSurface
ASCII
DATASET POLYDATA
POINTS 6837 double
581321 4785370 969.805969238
581333.6875 4785370 969.71295166
581353.3125 4785370 969.565979004
581365.625 4785370 969.362426758
581385.625 4785370 969.02746582
581397.5 4785370 969.024597168
581321 4785381.5 969.960021973
581417.875 4785370 969.007995605
581333.9375 4785381.5 969.918273926
581430.1875 4785370 969.352478027
581340.4375 4785381.5 969.868774414
581353.3125 4785381.5 969.761962891
581450.1875 4785370 969.912597656
581365.875 4785381.5 969.581787109
581463.75 4785370 970.42980957
581373.1875 4785381 969.456542969
581385.625 4785381 969.296020508
581334 4785387.5 969.993896484
581482.5 4785370 971.136413574
581340.3125 4785387.5 969.969055176
581397.75 4785381 969.221496582
581405.75 4785381 969.21484375
581497.5 4785370 971.711914062
581417.875 4785381 969.465576172
581366 4785387.5 969.68939209
581514.8125 4785370 972.389465332
581373 4785387.5 969.620727539
581430.6875 4785381.5 969.801757812
581531 4785370 972.792053223
581437.1875 4785381.5 969.99017334
581397.9375 4785388 969.393859863
581547.125 4785370 973.181945801
581450.1875 4785382 970.40020752
581405.4375 4785388 969.494567871
581321 4785399 970.19152832
581564.375 4785370 973.72467041
581464.3125 4785382.5 970.951599121
581334.1875 4785399 970.140991211
581431 4785387.5 970.04675293
581468.1875 4785383 971.104614258
581436.9375 4785387 970.199523926
581579.375 4785370 974.197387695
581353.3125 4785399 970.064453125
581482.5 4785383.5 971.689147949
581464.5 4785386 971.098449707
581597.9375 4785370 974.847839355
581468.0625 4785386 971.233520508
581366.25 4785399 969.93560791
581611.6875 4785370 975.293579102
581498.25 4785384 972.371643066
581499.0625 4785384 972.405212402
581498.25 4785385 972.404052734
581499 4785385 972.432495117
581385.625 4785399 969.7421875
581631.875 4785370 976.302368164
581514.8125 4785385 973.01171875
581398.5625 4785399 969.931396484
581530.125 4785384 973.459838867
581644 4785370 976.908569336
581531.8125 4785383.5 973.498962402
581530.0625 4785385.5 973.521118164
581417.875 4785399 970.203979492
581321 4785411 970.229492188
581531.875 4785385.5 973.586669922
581666 4785370 977.89642334
581561.4375 4785383 974.332580566
581431.5625 4785399 970.578125
581565.1875 4785383 974.443237305
581334.375 4785411 970.311706543
581676.3125 4785370 978.351928711
581547.125 4785386 974.014221191
581339.9375 4785411 970.289123535
581450.1875 4785399 971.076904297
581592.4375 4785381.5 975.478088379
581353.3125 4785411 970.234802246
581598.875 4785381.5 975.688476562
581561.25 4785386.5 974.505249023
581700.125 4785370 979.502319336
581565.5 4785386.5 974.729553223
581366.5 4785411 970.16973877
581465.125 4785399 971.659423828
581372.4375 4785411 970.109313965
581623.25 4785380.5 976.804931641
581708.625 4785370 979.908813477
581334.375 4785416 970.327331543
581632.9375 4785380 977.249023438
581339.875 4785416 970.360839844
581385.625 4785410.5 970.034362793
581482.5 4785399 972.341064453
581579.375 4785387 975.446960449
581654 4785379 978.193969727
581734.375 4785370 981.257385254
581398.875 4785411 970.188781738
581666.9375 4785378.5 978.725036621
581498.9375 4785399 972.98614502
581592 4785387.5 975.895507812
581740.875 4785370 981.567687988
581404.5625 4785411 970.271057129
581366.625 4785416 970.244140625
581684.75 4785377.5 979.528503418
581599.625 4785388 976.328735352
581372.3125 4785416 970.241149902
581514.8125 4785399 973.611450195
581700.9375 4785377 980.237121582
581417.875 4785411.5 970.62322998
581715.3125 4785376 981.063964844
581611.6875 4785389 977.006774902
581768.625 4785370 982.96673584
581532.625 4785399 974.223083496
581773.1875 4785370 983.19329834
581432.125 4785412 971.0546875
581735.1875 4785375 981.979675293
581399 4785416 970.317504883
581435.875 4785412 971.158325195
581404.375 4785416 970.431884766
581622.375 4785389.5 977.584472656
581745.9375 4785374.5 982.546020508
581547.125 4785399 974.70135498
581769.3125 4785373.5 983.559570312
581321 4785428 970.28302002
581450.1875 4785412.5 971.606933594
581634.125 4785390 978.286804199
581802.3125 4785370 984.174194336
581776.75 4785373 983.875549316
581432.25 4785415 971.171447754
581566.5625 4785399 975.65838623
581805.5 4785370 984.278747559
581435.6875 4785415 971.278869629
581334.4375 4785428 970.36529541
581644 4785390.5 978.885742188
581579.375 4785399 976.273193359
581465.8125 4785413 972.259887695
581466.875 4785413 972.303283691
581802.8125 4785372.5 984.619995117
581808.0625 4785372.5 984.761047363
581652.75 4785391 979.303222656
581465.8125 4785414 972.299987793
581466.8125 4785414 972.335205078
581353.3125 4785428 970.481506348
581835.4375 4785370 984.921264648
581837.8125 4785370 984.972351074
581600.8125 4785399 977.37689209
581482.5 4785413.5 972.894165039
581366.875 4785428 970.476013184
581497.875 4785413 973.438110352
581611.6875 4785399 977.927001953
581835.8125 4785372 985.26171875
581499.5 4785412.5 973.49987793
581668.8125 4785392.5 980.372314453
581839.6875 4785371.5 985.352844238
581497.8125 4785414.5 973.490783691
581385.625 4785428 970.466003418
581676.3125 4785393 980.879150391
581499.5625 4785414.5 973.56817627
581868.1875 4785370 985.308837891
581870.125 4785370 985.330383301
581528.75 4785411.5 974.689697266
581682.875 4785393 981.171813965
581533.3125 4785411.5 974.839111328
581635.125 4785399 979.19152832
581399.5 4785428 970.782592773
581868.5 4785371.5 985.615234375
581644 4785399 979.65838623
581871.6875 4785371.5 985.592712402
581514.8125 4785415 974.263671875
581559.4375 4785410 976.092956543
581567.4375 4785409.5 976.459960938
581417.875 4785428 971.187988281
581321 4785440 970.249084473
581900.5625 4785370 985.372253418
581816.9375 4785380.5 987
581902.375 4785370 985.36505127
581805.5 4785382 987
581528.5625 4785415.5 974.849365234
581789.0625 4785384.5 987
581590 4785408.5 977.640625
581837.8125 4785378.5 987
581669.6875 4785399 981.175231934
581704.0625 4785395 982.980102539
581432.8125 4785428 971.672912598
581334.5 4785440 970.433654785
581533.6875 4785416 975.169311523
581900.8125 4785371.5 985.626525879
581601.75 4785408 978.196350098
581676.3125 4785399 981.542541504
581904 4785371.5 985.577514648
581708.625 4785395.5 983.410583496
581339.75 4785440 970.466003418
581847.25 4785378.5 987
581712.4375 4785395.5 983.62286377
581620.5625 4785407 979.202148438
581450.1875 4785428 972.233459473
581870.125 4785377.5 987
581930.875 4785370 983.651062012
581353.3125 4785440.5 970.541931152
581547.125 4785416.5 975.902404785
581773.1875 4785389.5 987
581636 4785406 979.959533691
581934.6875 4785370 983.391235352
581651 4785405.5 980.847595215
581764.9375 4785391.5 987
581704.75 4785399 983.621582031
581466.4375 4785428 972.839233398
581367.125 4785440.5 970.691101074
581708.625 4785399 983.892028809
581558.9375 4785417.5 976.559265137
581334.5 4785445 970.420227051
581371.8125 4785440.5 970.688537598
581670.5 4785404 981.870117188
581931.5625 4785373 984.217651367
581339.6875 4785445 970.488647461
581681.375 4785403.5 982.541748047
581482.5 4785428 973.4375
581961 4785370 981.683532715
581568.25 4785418 977.168273926
581881.25 4785380 987
581385.625 4785440.5 970.776184082
581938.375 4785373.5 983.737670898
581967 4785370 981.374816895
581705.3125 4785402 984.072753906
581711.375 4785401.5 984.575012207
581740.125 4785398.5 986.332946777
581740.875 4785398.5 986.406616211
581741.5625 4785398.5 986.438110352
581500.25 4785428 974.182006836
581740.3125 4785399 986.45892334
581740.875 4785399 986.504272461
581579.375 4785418.5 977.851928711
581367.125 4785444.5 970.711914062
581740.375 4785399.5 986.552429199
581399.9375 4785441 971.139709473
581741.3125 4785399.5 986.626159668
581902.375 4785380 987
581371.6875 4785444.5 970.786804199
581747.625 4785399 987
581403.5 4785441 971.220397949
581742.375 4785400.5 987
581991.875 4785370 980.444030762
581514.8125 4785428 974.783325195
581589.0625 4785419.5 978.452453613
581740.875 4785401 987
581771.5625 4785397.5 988.448730469
581999.3125 4785370 980.215209961
581961.8125 4785374.5 982.446289062
581775 4785397.5 988.609741211
581417.875 4785441.5 971.627624512
581400 4785444 971.219177246
581915.25 4785381.5 987
581534.5625 4785428 975.942871094
581773.1875 4785399 988.904968262
581403.375 4785444 971.316955566
581775.5625 4785399 989.062255859
581802.0625 4785396 990.019836426
581972.75 4785375 981.90045166
581603.1875 4785420.5 979.494873047
581809.1875 4785395.5 990.250610352
582023.3125 4785370 979.662719727
581547.125 4785428 976.657714844
581433.375 4785442 972.151184082
581434.6875 4785442 972.194824219
581770.5625 4785401.5 989.335754395
581611.6875 4785421 980.06652832
582031.625 4785370 979.475646973
581718.9375 4785408.5 987
581433.4375 4785443 972.19152832
581434.625 4785443 972.230529785
581773.1875 4785402 989.868835449
581321 4785457 970.201538086
581833.4375 4785395 990.866882324
581776.625 4785402 990.028625488
581992.75 4785376 981.246948242
581619.0625 4785421.5 980.528625488
581805.5 4785399 991.030456543
581569.1875 4785428 977.988220215
581450.1875 4785442.5 972.723571777
581842.375 4785395 991.048950195
581810.25 4785399 991.174560547
581334.4375 4785457 970.377807617
582054.0625 4785370 978.304321289
581579.375 4785428 978.59362793
581465.6875 4785442 973.316894531
582006.25 4785376.5 980.84185791
581467.0625 4785442 973.364990234
582063.875 4785370 977.792602539
581465.6875 4785443 973.355529785
581353.3125 4785457 970.624511719
581467.125 4785443 973.416992188
581865.5625 4785395 991.003356934
581934.6875 4785387 987
581837.8125 4785399 992.067565918
581638.6875 4785423.5 982.335205078
581708.625 4785415 987
581496.625 4785440.5 974.533935547
582024.1875 4785376.5 980.475708008
581874.5 4785395 990.861328125
581500.875 4785440.5 974.704528809
581604.0625 4785428 980.246398926
581799.625 4785404.5 992.173034668
581843.5 4785399 992.024414062
581367.3125 4785457 970.869262695
582084.25 4785370 976.472412109
581644 4785423.5 982.798339844
[...]
POINT_DATA 6837
FIELD attributes 1
U 3 6837 float
10.5820541382 1.13020155734e-10 0.0978979170322
10.5751047134 1.47010962431e-11 0.175730839372
10.4964799881 -1.51454515596e-10 0.281545817852
10.4747028351 -1.17028192692e-10 0.347537875175
10.3225774765 -1.21365709149e-10 0.433735877275
10.3014411926 3.37225837532e-11 0.494134157896
10.592751503 8.19362286353e-11 0.0570251643658
10.0915584564 2.90975132877e-10 0.574033617973
10.9085168839 0.000125785241835 0.178733319044
10.0856781006 1.78001627327e-10 0.632045388222
10.8810853958 0.000125240316265 0.213695049286
10.5101947784 -1.32300583573e-05 0.281713217497
9.87300300598 5.51958062589e-11 0.698413670063
10.8259477615 8.55977123138e-05 0.341507852077
9.867146492 -3.2430908653e-11 0.750594377518
10.7662239075 8.46303082653e-05 0.373167604208
10.3431301117 -2.93186749332e-05 0.43429017067
10.9238204956 0.00012661855726 0.160838723183
9.64925479889 -1.4311793417e-10 0.788812100887
10.8912944794 0.000139757088618 0.213194519281
10.6623678207 0.000144518518937 0.486588388681
10.5796670914 0.000144428981002 0.517991065979
9.62511539459 -6.86714712872e-11 0.826156497002
10.1310110092 -8.93496144272e-06 0.575578331947
10.8366479874 0.000101189732959 0.342197924852
9.40792274475 -7.63753643662e-12 0.831185817719
10.7849378586 8.61688095029e-05 0.372612476349
10.5214958191 0.000277668674244 0.630421817303
9.3284444809 -6.02852793727e-12 0.8438834548
10.4600629807 0.000282297987724 0.651833117008
10.6807689667 0.000147131228005 0.487816154957
9.09138202667 -2.30938033453e-12 0.819342494011
9.92085456848 3.14702556352e-05 0.700840592384
10.6160535812 0.00017128122272 0.517493247986
10.6330375671 0 0
8.98794269562 -1.96540925895e-11 0.808924436569
10.398188591 0.000459378148662 0.757474899292
10.6284179688 -1.36752560138e-05 0.122342221439
10.5504484177 0.000302854197798 0.632445514202
10.3595132828 0.000465022545541 0.765487551689
10.491147995 0.000327940128045 0.65205925703
8.79012584686 -4.35196878534e-11 0.772211968899
10.5313177109 2.72532397503e-05 0.282016247511
9.71078491211 8.56949918671e-05 0.792747318745
10.4175872803 0.000491021783091 0.758867442608
8.65584373474 6.11551434493e-11 0.742379069328
10.3811511993 0.000500298396219 0.766203165054
10.5143880844 1.00938868854e-05 0.351576238871
8.49303150177 1.19099327622e-10 0.705658197403
10.2716064453 0.000709577812813 0.846001088619
10.2629203796 0.000711295229848 0.846286475658
10.2763376236 0.000718196213711 0.846352219582
10.2679815292 0.000719142728485 0.846591770649
10.3772468567 -2.97855513054e-05 0.435285419226
8.36519813538 -5.08936850996e-11 0.665770709515
9.48535823822 0.000155556219397 0.837252020836
10.3690433502 -8.57812847244e-06 0.501293361187
9.99710655212 0.000897359626833 0.87261557579
8.27273368835 -1.0925067101e-10 0.640403211117
9.98707485199 0.000894768163562 0.873826742172
10.0026693344 0.000909830501769 0.873072743416
10.1946640015 5.00077803736e-05 0.578172087669
10.6354999542 0 0
9.99345302582 0.000913958181627 0.874594032764
8.10169124603 -1.20612880794e-10 0.590087771416
9.62075424194 0.00101462460589 0.84389102459
10.1873350143 9.01588136912e-05 0.6426846385
9.59312057495 0.00100575981196 0.841359198093
10.9526424408 0.000150962747284 0.165068149567
8.03138446808 -1.25605345569e-10 0.572625517845
9.20446109772 0.000231811427511 0.829737782478
10.9238042831 0.000162542724865 0.211390480399
9.98722648621 0.000159682836966 0.704333245754
9.23413658142 0.0010488681728 0.780560731888
10.5432300568 2.72053239314e-05 0.282149285078
9.17775344849 0.00102971121669 0.769683361053
9.63912582397 0.00105324899778 0.845908641815
7.85486984253 7.49883141693e-11 0.519846618176
9.61693191528 0.00105674006045 0.844074904919
10.8843584061 0.000105792525574 0.345095455647
9.98196411133 0.000207300166949 0.761939704418
10.8404750824 9.30930254981e-05 0.370746314526
8.86203098297 0.000973249669187 0.701802015305
7.81566476822 1.15834439263e-10 0.510057985783
10.9540672302 0.000151162283146 0.165286332369
8.78134727478 0.000930858484935 0.68180924654
10.9310913086 0.000157380010933 0.211030691862
10.3996076584 -2.53154030361e-05 0.435882925987
9.78330039978 0.000237438376644 0.797553300858
8.97042560577 0.000316382618621 0.79058521986
8.51822471619 0.000782729825005 0.621802508831
7.64661455154 1.41385835331e-11 0.458710998297
10.7657175064 0.00017736486916 0.493189930916
8.39803981781 0.000735523470212 0.591925084591
9.75845718384 0.000296298676403 0.838598966599
9.28497982025 0.00112831336446 0.787078738213
7.62608098984 0 0.453785598278
10.7170362473 0.000195967062609 0.515825867653
10.891749382 0.00010001577175 0.345570802689
8.20126819611 0.000536259089131 0.547529518604
9.237865448 0.00112389586866 0.776614010334
10.8554944992 9.16578574106e-05 0.370299547911
9.55992603302 0.000298042781651 0.843315124512
8.05930423737 0.000485399388708 0.512279570103
10.2308101654 4.82384457428e-05 0.579566121101
7.95248889923 0.000300920946756 0.487836658955
8.74867153168 0.000394228176447 0.732948541641
7.45299625397 0 0.404777139425
9.49354743958 0.000364773906767 0.858968377113
7.44540452957 0 0.402773857117
10.6696453094 0.000379068631446 0.64038091898
7.79425859451 0.000254499987932 0.449615120888
10.7794561386 0.000176901259692 0.49410495162
10.6336212158 0.000395353272324 0.652686834335
10.7379493713 0.000190804261365 0.515538394451
8.96737766266 0.00110479991417 0.716354846954
7.72891807556 0.000146955790115 0.43688800931
9.29774284363 0.000354600604624 0.838593184948
7.55257606506 0.000113513873657 0.397428750992
10.638967514 0 0
10.0392370224 0.000144453093526 0.706954240799
8.88915157318 0.00107437989209 0.694676995277
7.22035217285 6.41018835235e-11 0.3541007936
7.51007127762 6.94215195836e-05 0.391151994467
10.6834459305 0.000377256044885 0.641343712807
9.22812271118 0.00042409641901 0.831215202808
7.21113634109 6.88971379947e-11 0.352841109037
10.6515245438 0.000389134162106 0.652815043926
10.6428928375 -1.3369496628e-05 0.124655880034
8.57084560394 0.000446591991931 0.672204375267
9.08959293365 0.000421982753323 0.803037405014
10.5712356567 0.000611651863437 0.769437611103
10.5609884262 0.000614765158389 0.771631717682
7.2865653038 5.2880441217e-05 0.348914921284
7.25384426117 3.99486270908e-05 0.345317453146
8.67896366119 0.000971257046331 0.644591093063
10.5765314102 0.000610379618593 0.769816994667
10.5663375854 0.000612543255556 0.771808862686
10.560418129 6.51331902191e-06 0.282392889261
6.96087598801 2.91635899458e-12 0.308152198792
6.95288991928 -3.66946409239e-13 0.307371079922
8.98543834686 0.000483008188894 0.773796021938
9.84486675262 0.000202809344046 0.801464557648
10.5517816544 -7.02447505319e-06 0.355371594429
10.3799705505 0.000825349590741 0.852440953255
8.88593578339 0.000490888836794 0.747903883457
7.00727367401 3.10149516736e-05 0.30467531085
10.3746795654 0.000828765041661 0.856440484524
8.58231925964 0.000894733646419 0.614541292191
6.98644733429 2.85811220238e-05 0.302859038115
10.3839902878 0.000819502049126 0.852630376816
10.4326000214 -3.44753461832e-05 0.436848253012
8.40905475616 0.000448663573479 0.611466050148
10.3789825439 0.000819812819827 0.857031464577
6.69143724442 -6.73388428352e-11 0.268069833517
6.68395280838 -7.01769614642e-11 0.267492383718
10.1094846725 0.00100041029509 0.882048726082
8.44815540314 0.000755996443331 0.582282602787
10.0851736069 0.00100961723365 0.885738193989
8.75111865997 0.000519610359333 0.703000545502
10.4324941635 -1.72593881871e-05 0.507997512817
6.73016643524 2.40282442974e-05 0.265857458115
8.68732261658 0.000523441005498 0.684885144234
6.70464944839 2.56290932157e-05 0.263841807842
9.64106941223 0.000237653817749 0.849647700787
9.80902099609 0.00113918667194 0.86507833004
9.76171016693 0.00114283757284 0.860996603966
10.2794847488 2.37487511185e-05 0.581555187702
10.6367673874 0 0
6.4181842804 -2.56658561591e-12 0.233748033643
7.43590545654 5.20511312061e-05 0.359041601419
6.40895414352 0 0.233155593276
7.56331539154 8.23382797535e-05 0.378432750702
10.1239671707 0.000975212140474 0.88323289156
7.76512336731 9.9100980151e-05 0.411931574345
9.49858474731 0.00122057308909 0.815153300762
7.20364141464 4.26403239544e-05 0.323701947927
8.54184436798 0.000502140843309 0.631863117218
8.38021469116 0.000627108209301 0.551902890205
10.278131485 5.53326135559e-05 0.652159452438
10.9637327194 2.45346072916e-05 0.166730672121
10.1091394424 0.000967966974713 0.888626277447
6.44945287704 2.50135708484e-05 0.231590524316
9.41420078278 0.00120837264694 0.797560632229
8.50817394257 0.000495352665894 0.621839702129
6.42388391495 2.67948653345e-05 0.229740306735
8.3266916275 0.000412231049268 0.559397041798
10.9417934418 3.01356976706e-05 0.210465505719
7.10909891129 3.21988300129e-05 0.3105917871
8.33960914612 0.000531058467459 0.540486454964
9.18697452545 0.00120790931396 0.747441112995
10.1006746292 0.000101247322164 0.71019166708
6.88144302368 2.79653086181e-05 0.279034614563
5.98907089233 0 0.197225227952
10.5646514893 1.26914128487e-05 0.282446295023
9.46083545685 0.000268771342235 0.85358440876
7.9605588913 0.000183465555892 0.444372922182
9.063788414 0.0011582847219 0.716194927692
5.94555616379 0 0.194942995906
8.9033870697 0.00105855357833 0.677099227905
8.07060337067 0.000203523493838 0.464148521423
8.4018907547 0.000436392700067 0.569469451904
10.0921201706 0.000135383714223 0.772799909115
10.936299324 9.2225645858e-06 0.348416298628
8.39694213867 0.000428669445682 0.566267907619
9.85856151581 0.001068068319 0.870508909225
10.9625101089 2.4507069611e-05 0.166543528438
10.9064998627 2.37408562498e-06 0.36873459816
8.7504529953 0.00095248472644 0.635741770267
6.05526304245 5.24100760231e-05 0.19371034205
10.9441013336 2.44770144491e-05 0.210352048278
8.65428447723 0.000813237973489 0.611812531948
9.90526866913 0.000150937397848 0.8054869771
5.57400274277 0 0.166793316603
9.820520401 0.00104582484346 0.867680907249
6.78207159042 3.11878029606e-05 0.266540944576
10.4563674927 -1.97009612748e-05 0.437519341707
5.9650759697 6.08852678852e-05 0.187505125999
5.52018070221 0 0.164134129882
8.5083026886 0.000650926784147 0.568047463894
8.483751297 0.000555256439839 0.560347735882
8.31264781952 0.000381188991014 0.512285232544
8.30841445923 0.000356845121132 0.51444965601
8.30841732025 0.000368601846276 0.511164665222
9.88356304169 0.000190617705812 0.850253641605
8.32184314728 0.000358988239896 0.51595044136
8.32217693329 0.000357812066795 0.515684425831
9.31730461121 0.000315619603498 0.826206147671
10.938369751 4.08690857512e-06 0.348549485207
8.33881473541 0.000383232807508 0.515494942665
10.8673744202 2.5569985155e-05 0.499874025583
8.3364276886 0.000371372501832 0.514787971973
6.59433078766 3.06407418975e-05 0.242938891053
10.9177074432 2.26706447393e-06 0.368398219347
8.30204200745 0.000345403823303 0.505716443062
10.8405485153 3.37773126375e-05 0.514053344727
8.37222766876 0.000356631062459 0.51832562685
5.26517915726 0 0.144913569093
9.70563316345 0.000186637887964 0.854928076267
9.59731006622 0.0010886216769 0.8277567029
8.39206886292 0.000357727694791 0.521888911724
8.17457294464 0.00025413025287 0.47142291069
5.218354702 0 0.142685979605
5.66200494766 8.49855423439e-05 0.161014258862
8.14566326141 0.000253978883848 0.463670432568
10.3174066544 2.55893573922e-05 0.583070516586
10.8758678436 2.56323346548e-05 0.500436067581
6.49250507355 3.39294565492e-05 0.231332913041
9.69188690186 0.00023536849767 0.877057254314
8.18010234833 0.000259320106125 0.471192359924
10.8531074524 2.81477805402e-05 0.513877570629
8.17050933838 0.000259062828263 0.467624515295
7.99468278885 0.000180577728315 0.428596735001
5.55077886581 9.06483837753e-05 0.153922051191
9.53591823578 0.00102994742338 0.811511218548
7.92615509033 0.000168581900652 0.412769407034
5.02575111389 0 0.1285674721
9.56331062317 0.000228553428315 0.863287448883
10.7992620468 8.87341375346e-05 0.649321496487
10.7875871658 9.22933468246e-05 0.653675913811
8.30566310883 0.00023987176246 0.487809836864
9.20510387421 0.000374829600332 0.78191703558
4.98352909088 0 0.126672059298
8.70362377167 0.000406341569033 0.581788003445
10.8040351868 8.670281386e-05 0.649653017521
10.7928886414 8.79498475115e-05 0.653712511063
8.29114437103 0.000249805540079 0.484707772732
10.6336860657 0 0
7.73282146454 0.000122622441268 0.37938579917
8.30884552002 0.000234966370044 0.480515539646
5.35722112656 0.000102264813904 0.137728586793
9.36600017548 0.00100221671164 0.77205568552
8.02973651886 0.000183947340702 0.433186888695
9.51739788055 0.000287500908598 0.857979655266
10.1487674713 7.87909084465e-05 0.712676942348
7.64070224762 0.000100489487522 0.360878884792
7.98953771591 0.000182026618859 0.423696488142
10.6436958313 -7.15034593668e-06 0.124778442085
4.75272035599 0 0.113314040005
9.42422866821 0.00028947921237 0.837378144264
10.6722793579 0.000135735434014 0.774462997913
5.25632238388 0.000101513011032 0.131770014763
10.6695337296 0.000138542323839 0.779607415199
4.67821979523 0 0.110421106219
10.6747589111 0.000133725901833 0.77449297905
10.5704193115 -7.91666116129e-06 0.28252902627
10.6723709106 0.000134063695441 0.780079364777
7.40408039093 7.42485717637e-05 0.328330338001
6.33871030807 5.03918527102e-05 0.213819026947
7.78494119644 0.000133042500238 0.388364255428
9.31008911133 0.000858466431964 0.745396614075
8.8503780365 0.000405451515689 0.609978854656
10.4634513855 0.000173093154444 0.856573879719
5.11795568466 0.000107548570668 0.120812729001
7.28416252136 5.86138776271e-05 0.309864372015
10.4504022598 0.000182681178558 0.86703389883
9.35929012299 0.000352008413756 0.809297800064
8.30235481262 0.000162176744197 0.464093744755
7.71258735657 0.00012932815298 0.374823153019
10.5790719986 -1.30901389639e-05 0.35816180706
4.45641708374 0 0.0996534377337
9.16051959991 0.000414943206124 0.735289037228
9.30465507507 0.000361256214092 0.792777299881
9.9722442627 9.82143974397e-05 0.809835851192
9.22735309601 0.000771532009821 0.722814977169
10.2483959198 0.000220029323827 0.893695056438
4.35919761658 0 0.0962822362781
8.29917812347 0.000166992307641 0.464724093676
9.00226688385 0.000421312754042 0.64069211483
10.2189388275 0.000240593974013 0.902022540569
4.98688650131 0.000108826578071 0.11369048059
10.4869155884 -2.08494911931e-05 0.438398391008
8.2408952713 0.000132227796712 0.442318916321
7.43985128403 9.88124957075e-05 0.337254494429
10.4738836288 0.000159816496307 0.857088387012
10.0073347092 0.00028527219547 0.887024104595
7.33855962753 9.52143891482e-05 0.322027295828
4.18332767487 0 0.0892775431275
6.937707901 5.73739271204e-05 0.271957665682
10.4950780869 -1.53190521814e-05 0.514635920525
10.4689416885 0.000158865106641 0.86962723732
9.25515365601 0.000406158564147 0.751370370388
9.94474411011 0.000316647492582 0.881944894791
9.23908996582 0.000411780696595 0.743812739849
4.84020614624 0.000119616888696 0.10389495641
6.86106538773 5.33041238668e-05 0.261490374804
9.75754356384 0.000364126433851 0.848393321037
8.14609718323 9.47446751525e-05 0.422615647316
4.08316993713 0 0.0862893238664
9.6606054306 0.000399681128329 0.825920701027
10.3619298935 -3.91253161069e-06 0.584873974323
10.625998497 0 0
9.84651088715 9.40594109125e-05 0.866092264652
9.54285907745 0.000431731052231 0.796519517899
6.9391336441 8.2319129433e-05 0.276368647814
9.18108844757 0.000528297910932 0.688212156296
8.1033372879 0.000117057119496 0.423694878817
9.15436172485 0.000410357053624 0.688193976879
7.97215175629 4.73757354484e-05 0.388865709305
6.90196275711 7.9192162957e-05 0.269844293594
3.95392227173 0 0.0829635262489
9.16591930389 0.000488173973281 0.683489859104
9.42534255981 0.000449041574029 0.759140014648
9.3708524704 0.000454455177533 0.743152558804
10.9511976242 4.45690193374e-06 0.164798349142
10.3616323471 7.15415762897e-06 0.660915017128
9.18179225922 0.000411142478697 0.692242801189
4.64188957214 0.000126655591885 0.0940961837769
6.593729496 5.6050666899e-05 0.233250454068
9.17985153198 0.000411119224736 0.690849781036
10.9317350388 4.30407044405e-06 0.210941493511
10.2892007828 0.000176900488441 0.897106349468
7.80356836319 2.93896828225e-05 0.365815222263
6.51987218857 6.04563974775e-05 0.225393801928
9.22360515594 0.000424207188189 0.693413972855
9.21636581421 0.000420960888732 0.690577805042
3.8650302887 0 0.0810517594218
9.19590950012 0.000401299388614 0.679802656174
10.1970176697 2.0693127226e-05 0.715203166008
9.14119243622 0.000281711341813 0.650439381599
4.5326423645 0.000135395297548 0.087787874043
7.53524065018 4.03683452532e-06 0.328926563263
9.13235569 0.000286922469968 0.643235564232
7.70015096664 8.70419826242e-05 0.364337533712
10.5753793716 -4.70466420666e-06 0.282598048449
10.2688808441 0.000174115179107 0.908092141151
9.1179151535 0.000167361096828 0.61904489994
6.60671043396 7.69092875998e-05 0.237840354443
7.19125890732 1.58319926413e-05 0.293264955282
9.07807445526 0.000186541525181 0.598725795746
6.55566930771 7.5785574154e-05 0.231389313936
9.28357028961 0.000396379822632 0.69751906395
3.75547909737 0 0.0805059745908
6.99695825577 1.80839961104e-05 0.270840138197
9.05015659332 0.000130028100102 0.581524074078
7.11262464523 7.51447369112e-05 0.293158739805
10.1942825317 3.0489763958e-05 0.782925665379
9.1402721405 0.000316104531521 0.646171092987
10.9644060135 3.37077807444e-07 0.350210160017
9.3232421875 0.000381918565836 0.705535233021
9.76220989227 8.92544703675e-05 0.881654202938
8.93762111664 0.000134187182994 0.545770227909
9.15749549866 0.000313283118885 0.64484244585
10.9461984634 4.43619319412e-06 0.164032623172
10.9465427399 -1.26851625737e-06 0.367512434721
3.66590976715 0 0.0796070694923
10.9340677261 3.91082994611e-06 0.210827171803
8.88108730316 0.000108881409687 0.531182169914
6.73227024078 2.65567014139e-05 0.243731319904
10.0274505615 3.31265109708e-05 0.81346321106
6.6325006485 3.31746050506e-05 0.232512280345
6.71136760712 7.21587202861e-05 0.247209742665
10.0904016495 0.000195235756109 0.896190702915
6.12676095963 8.87637797859e-05 0.191851958632
6.08910655975 9.17504148674e-05 0.188781157136
6.08643531799 8.83151951712e-05 0.189113542438
6.08224344254 9.20184029383e-05 0.188342005014
6.09295988083 8.8321408839e-05 0.189412400126
6.09090185165 8.83266839082e-05 0.189312249422
6.09679365158 9.15423370316e-05 0.189285025001
6.09193992615 9.18865771382e-05 0.188974767923
3.57863283157 0 0.0815893262625
9.30439567566 0.000263334164629 0.673080325127
4.28203868866 0.000144075849676 0.0769520625472
8.68472194672 6.80308658048e-05 0.484172105789
10.5161142349 -1.51755430124e-05 0.439228415489
5.63958215714 0.000126169368741 0.15473946929
6.11064958572 8.79439103301e-05 0.19018214941
5.61389827728 8.55207399582e-05 0.15885579586
5.58262777328 0.000125227365061 0.151368036866
4.23220252991 0.000147682629176 0.0745601728559
10.9661922455 3.81972675711e-08 0.350324988365
8.60388851166 5.48315838387e-05 0.470670223236
10.0542020798 4.24540194217e-05 0.86619746685
9.17045593262 0.000207187462365 0.619001209736
9.27261924744 0.000303463486489 0.662670135498
10.9570770264 -6.00314251642e-07 0.367195159197
6.09604406357 8.66428526933e-05 0.188797742128
5.28558683395 0.00014383107191 0.13026240468
3.49749612808 0 0.0821911543608
9.20193195343 0.000203179239179 0.613642573357
9.60834693909 0.000331709015882 0.764513552189
10.0532608032 0.00018911533698 0.894331634045
5.23660612106 8.16462925286e-05 0.136336281896
9.93304443359 3.87388427043e-05 0.873000264168
10.975110054 6.11691984886e-06 0.506964743137
5.17712259293 0.000142334261909 0.12434553355
9.42759418488 0.000217622931814 0.677953660488
10.9664869308 7.04421790942e-06 0.512253820896
5.6816945076 8.59973733895e-05 0.161757826805
4.92550182343 0.000155173591338 0.108437843621
5.65692663193 8.56911938172e-05 0.160635843873
4.82870531082 7.16636568541e-05 0.115837670863
3.40592432022 0 0.0861912816763
8.32815742493 -1.26318700495e-05 0.419059932232
10.9788799286 6.37041421214e-06 0.507213592529
9.71540927887 0.000100935561932 0.867044150829
10.9714536667 6.61950571157e-06 0.512183845043
4.72987604141 0.000154697598191 0.098708845675